   6   6   1   0
  0.1074401E+02  0.4659658E-09  0.4659658E-09  0.2968997E-09  0.5000000E-15
  1.000000000000000E-004
  CAR 
 Rutile (band)                           
     42.58808845    -17.35828849  301      1.87450744      1.00000000
    -17.358  0.0000E+00  0.0000E+00  0.0000E+00  0.0000E+00
    -17.158  0.0000E+00  0.0000E+00  0.0000E+00  0.0000E+00
    -16.959  0.0000E+00  0.0000E+00  0.0000E+00  0.0000E+00
    -16.759  0.0000E+00  0.0000E+00  0.0000E+00  0.0000E+00
    -16.559  0.1559E-03  0.1562E-03  0.3114E-04  0.3122E-04
    -16.359  0.4468E+00  0.4468E+00  0.8931E-01  0.8932E-01
    -16.159  0.3819E+00  0.3818E+00  0.1656E+00  0.1656E+00
    -15.960  0.2989E+00  0.2989E+00  0.2253E+00  0.2253E+00
    -15.760  0.1841E+01  0.1841E+01  0.5932E+00  0.5932E+00
    -15.560  0.9678E+00  0.9676E+00  0.7865E+00  0.7866E+00
    -15.360  0.2093E+01  0.2093E+01  0.1205E+01  0.1205E+01
    -15.160  0.3893E+01  0.3892E+01  0.1982E+01  0.1983E+01
    -14.960  0.4864E+01  0.4864E+01  0.2954E+01  0.2955E+01
    -14.761  0.5100E+01  0.5099E+01  0.3974E+01  0.3974E+01
    -14.561  0.1324E+00  0.1322E+00  0.4000E+01  0.4000E+01
    -14.361  0.0000E+00  0.0000E+00  0.4000E+01  0.4000E+01
    -14.161  0.0000E+00  0.0000E+00  0.4000E+01  0.4000E+01
    -13.961  0.0000E+00  0.0000E+00  0.4000E+01  0.4000E+01
    -13.762  0.0000E+00  0.0000E+00  0.4000E+01  0.4000E+01
    -13.562  0.0000E+00  0.0000E+00  0.4000E+01  0.4000E+01
    -13.362  0.0000E+00  0.0000E+00  0.4000E+01  0.4000E+01
    -13.162  0.0000E+00  0.0000E+00  0.4000E+01  0.4000E+01
    -12.962  0.0000E+00  0.0000E+00  0.4000E+01  0.4000E+01
    -12.762  0.0000E+00  0.0000E+00  0.4000E+01  0.4000E+01
    -12.563  0.0000E+00  0.0000E+00  0.4000E+01  0.4000E+01
    -12.363  0.0000E+00  0.0000E+00  0.4000E+01  0.4000E+01
    -12.163  0.0000E+00  0.0000E+00  0.4000E+01  0.4000E+01
    -11.963  0.0000E+00  0.0000E+00  0.4000E+01  0.4000E+01
    -11.763  0.0000E+00  0.0000E+00  0.4000E+01  0.4000E+01
    -11.563  0.0000E+00  0.0000E+00  0.4000E+01  0.4000E+01
    -11.364  0.0000E+00  0.0000E+00  0.4000E+01  0.4000E+01
    -11.164  0.0000E+00  0.0000E+00  0.4000E+01  0.4000E+01
    -10.964  0.0000E+00  0.0000E+00  0.4000E+01  0.4000E+01
    -10.764  0.0000E+00  0.0000E+00  0.4000E+01  0.4000E+01
    -10.564  0.0000E+00  0.0000E+00  0.4000E+01  0.4000E+01
    -10.365  0.0000E+00  0.0000E+00  0.4000E+01  0.4000E+01
    -10.165  0.0000E+00  0.0000E+00  0.4000E+01  0.4000E+01
     -9.965  0.0000E+00  0.0000E+00  0.4000E+01  0.4000E+01
     -9.765  0.0000E+00  0.0000E+00  0.4000E+01  0.4000E+01
     -9.565  0.0000E+00  0.0000E+00  0.4000E+01  0.4000E+01
     -9.365  0.0000E+00  0.0000E+00  0.4000E+01  0.4000E+01
     -9.166  0.0000E+00  0.0000E+00  0.4000E+01  0.4000E+01
     -8.966  0.0000E+00  0.0000E+00  0.4000E+01  0.4000E+01
     -8.766  0.0000E+00  0.0000E+00  0.4000E+01  0.4000E+01
     -8.566  0.0000E+00  0.0000E+00  0.4000E+01  0.4000E+01
     -8.366  0.0000E+00  0.0000E+00  0.4000E+01  0.4000E+01
     -8.167  0.0000E+00  0.0000E+00  0.4000E+01  0.4000E+01
     -7.967  0.0000E+00  0.0000E+00  0.4000E+01  0.4000E+01
     -7.767  0.0000E+00  0.0000E+00  0.4000E+01  0.4000E+01
     -7.567  0.0000E+00  0.0000E+00  0.4000E+01  0.4000E+01
     -7.367  0.0000E+00  0.0000E+00  0.4000E+01  0.4000E+01
     -7.167  0.0000E+00  0.0000E+00  0.4000E+01  0.4000E+01
     -6.968  0.0000E+00  0.0000E+00  0.4000E+01  0.4000E+01
     -6.768  0.0000E+00  0.0000E+00  0.4000E+01  0.4000E+01
     -6.568  0.0000E+00  0.0000E+00  0.4000E+01  0.4000E+01
     -6.368  0.0000E+00  0.0000E+00  0.4000E+01  0.4000E+01
     -6.168  0.0000E+00  0.0000E+00  0.4000E+01  0.4000E+01
     -5.968  0.0000E+00  0.0000E+00  0.4000E+01  0.4000E+01
     -5.769  0.0000E+00  0.0000E+00  0.4000E+01  0.4000E+01
     -5.569  0.0000E+00  0.0000E+00  0.4000E+01  0.4000E+01
     -5.369  0.0000E+00  0.0000E+00  0.4000E+01  0.4000E+01
     -5.169  0.0000E+00  0.0000E+00  0.4000E+01  0.4000E+01
     -4.969  0.0000E+00  0.0000E+00  0.4000E+01  0.4000E+01
     -4.770  0.0000E+00  0.0000E+00  0.4000E+01  0.4000E+01
     -4.570  0.0000E+00  0.0000E+00  0.4000E+01  0.4000E+01
     -4.370  0.0000E+00  0.0000E+00  0.4000E+01  0.4000E+01
     -4.170  0.3781E-07  0.3734E-07  0.4000E+01  0.4000E+01
     -3.970  0.1610E+00  0.1607E+00  0.4032E+01  0.4032E+01
     -3.770  0.7313E+00  0.7305E+00  0.4178E+01  0.4178E+01
     -3.571  0.1168E+01  0.1168E+01  0.4412E+01  0.4412E+01
     -3.371  0.1061E+01  0.1061E+01  0.4624E+01  0.4624E+01
     -3.171  0.2304E+01  0.2303E+01  0.5084E+01  0.5084E+01
     -2.971  0.2141E+01  0.2142E+01  0.5512E+01  0.5512E+01
     -2.771  0.2739E+01  0.2738E+01  0.6059E+01  0.6059E+01
     -2.572  0.2006E+01  0.2006E+01  0.6460E+01  0.6460E+01
     -2.372  0.1860E+01  0.1859E+01  0.6832E+01  0.6831E+01
     -2.172  0.2863E+01  0.2863E+01  0.7404E+01  0.7404E+01
     -1.972  0.4515E+01  0.4515E+01  0.8306E+01  0.8306E+01
     -1.772  0.1852E+01  0.1851E+01  0.8676E+01  0.8676E+01
     -1.572  0.2236E+01  0.2236E+01  0.9123E+01  0.9123E+01
     -1.373  0.1983E+01  0.1983E+01  0.9519E+01  0.9519E+01
     -1.173  0.1553E+01  0.1553E+01  0.9829E+01  0.9829E+01
     -0.973  0.4040E+01  0.4040E+01  0.1064E+02  0.1064E+02
     -0.773  0.2659E+01  0.2660E+01  0.1117E+02  0.1117E+02
     -0.573  0.1511E+01  0.1511E+01  0.1147E+02  0.1147E+02
     -0.373  0.2352E+01  0.2352E+01  0.1194E+02  0.1194E+02
     -0.174  0.2815E+01  0.2815E+01  0.1250E+02  0.1250E+02
      0.026  0.2018E+01  0.2018E+01  0.1291E+02  0.1291E+02
      0.226  0.3111E+01  0.3111E+01  0.1353E+02  0.1353E+02
      0.426  0.2989E+01  0.2989E+01  0.1412E+02  0.1412E+02
      0.626  0.2208E+01  0.2208E+01  0.1457E+02  0.1457E+02
      0.825  0.2511E+01  0.2511E+01  0.1507E+02  0.1507E+02
      1.025  0.2746E+01  0.2745E+01  0.1562E+02  0.1562E+02
      1.225  0.8480E+00  0.8480E+00  0.1579E+02  0.1579E+02
      1.425  0.4045E+00  0.4045E+00  0.1587E+02  0.1587E+02
      1.625  0.6191E+00  0.6191E+00  0.1599E+02  0.1599E+02
      1.825  0.4942E-01  0.4922E-01  0.1600E+02  0.1600E+02
      2.024  0.0000E+00  0.0000E+00  0.1600E+02  0.1600E+02
      2.224  0.0000E+00  0.0000E+00  0.1600E+02  0.1600E+02
      2.424  0.0000E+00  0.0000E+00  0.1600E+02  0.1600E+02
      2.624  0.0000E+00  0.0000E+00  0.1600E+02  0.1600E+02
      2.824  0.0000E+00  0.0000E+00  0.1600E+02  0.1600E+02
      3.023  0.8960E-12  0.8379E-12  0.1600E+02  0.1600E+02
      3.223  0.3293E-01  0.3231E-01  0.1601E+02  0.1601E+02
      3.423  0.2146E+01  0.2144E+01  0.1644E+02  0.1643E+02
      3.623  0.1767E+01  0.1766E+01  0.1679E+02  0.1679E+02
      3.823  0.2090E+01  0.2088E+01  0.1721E+02  0.1721E+02
      4.023  0.4860E+01  0.4860E+01  0.1818E+02  0.1818E+02
      4.222  0.2469E+01  0.2470E+01  0.1867E+02  0.1867E+02
      4.422  0.2663E+01  0.2664E+01  0.1920E+02  0.1920E+02
      4.622  0.5638E+01  0.5634E+01  0.2033E+02  0.2033E+02
      4.822  0.1211E+01  0.1216E+01  0.2057E+02  0.2057E+02
      5.022  0.2501E+01  0.2500E+01  0.2107E+02  0.2107E+02
      5.222  0.3154E+01  0.3155E+01  0.2170E+02  0.2170E+02
      5.421  0.6144E+00  0.6156E+00  0.2182E+02  0.2182E+02
      5.621  0.6081E+00  0.6076E+00  0.2195E+02  0.2195E+02
      5.821  0.7095E+00  0.7095E+00  0.2209E+02  0.2209E+02
      6.021  0.4801E+00  0.4791E+00  0.2218E+02  0.2218E+02
      6.221  0.1682E+01  0.1682E+01  0.2252E+02  0.2252E+02
      6.420  0.8921E+00  0.8925E+00  0.2270E+02  0.2270E+02
      6.620  0.9792E+00  0.9783E+00  0.2289E+02  0.2289E+02
      6.820  0.6779E+00  0.6801E+00  0.2303E+02  0.2303E+02
      7.020  0.1700E+01  0.1709E+01  0.2337E+02  0.2337E+02
      7.220  0.1869E+01  0.1874E+01  0.2374E+02  0.2374E+02
      7.420  0.2741E+00  0.2605E+00  0.2380E+02  0.2380E+02
      7.619  0.5228E+00  0.5201E+00  0.2390E+02  0.2390E+02
      7.819  0.4908E+00  0.4940E+00  0.2400E+02  0.2400E+02
      8.019  0.4236E-02  0.4361E-02  0.2400E+02  0.2400E+02
      8.219  0.0000E+00  0.0000E+00  0.2400E+02  0.2400E+02
      8.419  0.0000E+00  0.0000E+00  0.2400E+02  0.2400E+02
      8.618  0.0000E+00  0.0000E+00  0.2400E+02  0.2400E+02
      8.818  0.0000E+00  0.0000E+00  0.2400E+02  0.2400E+02
      9.018  0.0000E+00  0.0000E+00  0.2400E+02  0.2400E+02
      9.218  0.0000E+00  0.0000E+00  0.2400E+02  0.2400E+02
      9.418  0.0000E+00  0.0000E+00  0.2400E+02  0.2400E+02
      9.618  0.0000E+00  0.0000E+00  0.2400E+02  0.2400E+02
      9.817  0.0000E+00  0.0000E+00  0.2400E+02  0.2400E+02
     10.017  0.0000E+00  0.0000E+00  0.2400E+02  0.2400E+02
     10.217  0.0000E+00  0.0000E+00  0.2400E+02  0.2400E+02
     10.417  0.0000E+00  0.0000E+00  0.2400E+02  0.2400E+02
     10.617  0.0000E+00  0.0000E+00  0.2400E+02  0.2400E+02
     10.817  0.0000E+00  0.0000E+00  0.2400E+02  0.2400E+02
     11.016  0.0000E+00  0.0000E+00  0.2400E+02  0.2400E+02
     11.216  0.0000E+00  0.0000E+00  0.2400E+02  0.2400E+02
     11.416  0.0000E+00  0.0000E+00  0.2400E+02  0.2400E+02
     11.616  0.0000E+00  0.0000E+00  0.2400E+02  0.2400E+02
     11.816  0.0000E+00  0.0000E+00  0.2400E+02  0.2400E+02
     12.015  0.0000E+00  0.0000E+00  0.2400E+02  0.2400E+02
     12.215  0.0000E+00  0.0000E+00  0.2400E+02  0.2400E+02
     12.415  0.0000E+00  0.0000E+00  0.2400E+02  0.2400E+02
     12.615  0.0000E+00  0.0000E+00  0.2400E+02  0.2400E+02
     12.815  0.0000E+00  0.0000E+00  0.2400E+02  0.2400E+02
     13.015  0.0000E+00  0.0000E+00  0.2400E+02  0.2400E+02
     13.214  0.0000E+00  0.0000E+00  0.2400E+02  0.2400E+02
     13.414  0.0000E+00  0.0000E+00  0.2400E+02  0.2400E+02
     13.614  0.0000E+00  0.0000E+00  0.2400E+02  0.2400E+02
     13.814  0.0000E+00  0.0000E+00  0.2400E+02  0.2400E+02
     14.014  0.0000E+00  0.0000E+00  0.2400E+02  0.2400E+02
     14.213  0.0000E+00  0.0000E+00  0.2400E+02  0.2400E+02
     14.413  0.0000E+00  0.0000E+00  0.2400E+02  0.2400E+02
     14.613  0.0000E+00  0.0000E+00  0.2400E+02  0.2400E+02
     14.813  0.0000E+00  0.0000E+00  0.2400E+02  0.2400E+02
     15.013  0.0000E+00  0.0000E+00  0.2400E+02  0.2400E+02
     15.213  0.0000E+00  0.0000E+00  0.2400E+02  0.2400E+02
     15.412  0.0000E+00  0.0000E+00  0.2400E+02  0.2400E+02
     15.612  0.0000E+00  0.0000E+00  0.2400E+02  0.2400E+02
     15.812  0.0000E+00  0.0000E+00  0.2400E+02  0.2400E+02
     16.012  0.0000E+00  0.0000E+00  0.2400E+02  0.2400E+02
     16.212  0.0000E+00  0.0000E+00  0.2400E+02  0.2400E+02
     16.412  0.0000E+00  0.0000E+00  0.2400E+02  0.2400E+02
     16.611  0.0000E+00  0.0000E+00  0.2400E+02  0.2400E+02
     16.811  0.0000E+00  0.0000E+00  0.2400E+02  0.2400E+02
     17.011  0.0000E+00  0.0000E+00  0.2400E+02  0.2400E+02
     17.211  0.0000E+00  0.0000E+00  0.2400E+02  0.2400E+02
     17.411  0.0000E+00  0.0000E+00  0.2400E+02  0.2400E+02
     17.610  0.0000E+00  0.0000E+00  0.2400E+02  0.2400E+02
     17.810  0.0000E+00  0.0000E+00  0.2400E+02  0.2400E+02
     18.010  0.0000E+00  0.0000E+00  0.2400E+02  0.2400E+02
     18.210  0.0000E+00  0.0000E+00  0.2400E+02  0.2400E+02
     18.410  0.0000E+00  0.0000E+00  0.2400E+02  0.2400E+02
     18.610  0.0000E+00  0.0000E+00  0.2400E+02  0.2400E+02
     18.809  0.0000E+00  0.0000E+00  0.2400E+02  0.2400E+02
     19.009  0.0000E+00  0.0000E+00  0.2400E+02  0.2400E+02
     19.209  0.0000E+00  0.0000E+00  0.2400E+02  0.2400E+02
     19.409  0.0000E+00  0.0000E+00  0.2400E+02  0.2400E+02
     19.609  0.0000E+00  0.0000E+00  0.2400E+02  0.2400E+02
     19.808  0.0000E+00  0.0000E+00  0.2400E+02  0.2400E+02
     20.008  0.0000E+00  0.0000E+00  0.2400E+02  0.2400E+02
     20.208  0.0000E+00  0.0000E+00  0.2400E+02  0.2400E+02
     20.408  0.0000E+00  0.0000E+00  0.2400E+02  0.2400E+02
     20.608  0.0000E+00  0.0000E+00  0.2400E+02  0.2400E+02
     20.808  0.0000E+00  0.0000E+00  0.2400E+02  0.2400E+02
     21.007  0.0000E+00  0.0000E+00  0.2400E+02  0.2400E+02
     21.207  0.0000E+00  0.0000E+00  0.2400E+02  0.2400E+02
     21.407  0.0000E+00  0.0000E+00  0.2400E+02  0.2400E+02
     21.607  0.0000E+00  0.0000E+00  0.2400E+02  0.2400E+02
     21.807  0.0000E+00  0.0000E+00  0.2400E+02  0.2400E+02
     22.006  0.0000E+00  0.0000E+00  0.2400E+02  0.2400E+02
     22.206  0.0000E+00  0.0000E+00  0.2400E+02  0.2400E+02
     22.406  0.0000E+00  0.0000E+00  0.2400E+02  0.2400E+02
     22.606  0.0000E+00  0.0000E+00  0.2400E+02  0.2400E+02
     22.806  0.0000E+00  0.0000E+00  0.2400E+02  0.2400E+02
     23.006  0.0000E+00  0.0000E+00  0.2400E+02  0.2400E+02
     23.205  0.0000E+00  0.0000E+00  0.2400E+02  0.2400E+02
     23.405  0.0000E+00  0.0000E+00  0.2400E+02  0.2400E+02
     23.605  0.0000E+00  0.0000E+00  0.2400E+02  0.2400E+02
     23.805  0.0000E+00  0.0000E+00  0.2400E+02  0.2400E+02
     24.005  0.0000E+00  0.0000E+00  0.2400E+02  0.2400E+02
     24.205  0.0000E+00  0.0000E+00  0.2400E+02  0.2400E+02
     24.404  0.0000E+00  0.0000E+00  0.2400E+02  0.2400E+02
     24.604  0.0000E+00  0.0000E+00  0.2400E+02  0.2400E+02
     24.804  0.0000E+00  0.0000E+00  0.2400E+02  0.2400E+02
     25.004  0.0000E+00  0.0000E+00  0.2400E+02  0.2400E+02
     25.204  0.0000E+00  0.0000E+00  0.2400E+02  0.2400E+02
     25.403  0.0000E+00  0.0000E+00  0.2400E+02  0.2400E+02
     25.603  0.0000E+00  0.0000E+00  0.2400E+02  0.2400E+02
     25.803  0.0000E+00  0.0000E+00  0.2400E+02  0.2400E+02
     26.003  0.0000E+00  0.0000E+00  0.2400E+02  0.2400E+02
     26.203  0.0000E+00  0.0000E+00  0.2400E+02  0.2400E+02
     26.403  0.0000E+00  0.0000E+00  0.2400E+02  0.2400E+02
     26.602  0.0000E+00  0.0000E+00  0.2400E+02  0.2400E+02
     26.802  0.0000E+00  0.0000E+00  0.2400E+02  0.2400E+02
     27.002  0.0000E+00  0.0000E+00  0.2400E+02  0.2400E+02
     27.202  0.0000E+00  0.0000E+00  0.2400E+02  0.2400E+02
     27.402  0.0000E+00  0.0000E+00  0.2400E+02  0.2400E+02
     27.601  0.0000E+00  0.0000E+00  0.2400E+02  0.2400E+02
     27.801  0.0000E+00  0.0000E+00  0.2400E+02  0.2400E+02
     28.001  0.0000E+00  0.0000E+00  0.2400E+02  0.2400E+02
     28.201  0.0000E+00  0.0000E+00  0.2400E+02  0.2400E+02
     28.401  0.0000E+00  0.0000E+00  0.2400E+02  0.2400E+02
     28.601  0.0000E+00  0.0000E+00  0.2400E+02  0.2400E+02
     28.800  0.0000E+00  0.0000E+00  0.2400E+02  0.2400E+02
     29.000  0.0000E+00  0.0000E+00  0.2400E+02  0.2400E+02
     29.200  0.0000E+00  0.0000E+00  0.2400E+02  0.2400E+02
     29.400  0.0000E+00  0.0000E+00  0.2400E+02  0.2400E+02
     29.600  0.0000E+00  0.0000E+00  0.2400E+02  0.2400E+02
     29.800  0.0000E+00  0.0000E+00  0.2400E+02  0.2400E+02
     29.999  0.0000E+00  0.0000E+00  0.2400E+02  0.2400E+02
     30.199  0.0000E+00  0.0000E+00  0.2400E+02  0.2400E+02
     30.399  0.0000E+00  0.0000E+00  0.2400E+02  0.2400E+02
     30.599  0.0000E+00  0.0000E+00  0.2400E+02  0.2400E+02
     30.799  0.0000E+00  0.0000E+00  0.2400E+02  0.2400E+02
     30.998  0.0000E+00  0.0000E+00  0.2400E+02  0.2400E+02
     31.198  0.0000E+00  0.0000E+00  0.2400E+02  0.2400E+02
     31.398  0.0000E+00  0.0000E+00  0.2400E+02  0.2400E+02
     31.598  0.0000E+00  0.0000E+00  0.2400E+02  0.2400E+02
     31.798  0.0000E+00  0.0000E+00  0.2400E+02  0.2400E+02
     31.998  0.0000E+00  0.0000E+00  0.2400E+02  0.2400E+02
     32.197  0.0000E+00  0.0000E+00  0.2400E+02  0.2400E+02
     32.397  0.0000E+00  0.0000E+00  0.2400E+02  0.2400E+02
     32.597  0.0000E+00  0.0000E+00  0.2400E+02  0.2400E+02
     32.797  0.0000E+00  0.0000E+00  0.2400E+02  0.2400E+02
     32.997  0.0000E+00  0.0000E+00  0.2400E+02  0.2400E+02
     33.196  0.0000E+00  0.0000E+00  0.2400E+02  0.2400E+02
     33.396  0.0000E+00  0.0000E+00  0.2400E+02  0.2400E+02
     33.596  0.0000E+00  0.0000E+00  0.2400E+02  0.2400E+02
     33.796  0.0000E+00  0.0000E+00  0.2400E+02  0.2400E+02
     33.996  0.0000E+00  0.0000E+00  0.2400E+02  0.2400E+02
     34.196  0.0000E+00  0.0000E+00  0.2400E+02  0.2400E+02
     34.395  0.0000E+00  0.0000E+00  0.2400E+02  0.2400E+02
     34.595  0.0000E+00  0.0000E+00  0.2400E+02  0.2400E+02
     34.795  0.0000E+00  0.0000E+00  0.2400E+02  0.2400E+02
     34.995  0.0000E+00  0.0000E+00  0.2400E+02  0.2400E+02
     35.195  0.0000E+00  0.0000E+00  0.2400E+02  0.2400E+02
     35.395  0.0000E+00  0.0000E+00  0.2400E+02  0.2400E+02
     35.594  0.0000E+00  0.0000E+00  0.2400E+02  0.2400E+02
     35.794  0.0000E+00  0.0000E+00  0.2400E+02  0.2400E+02
     35.994  0.0000E+00  0.0000E+00  0.2400E+02  0.2400E+02
     36.194  0.0000E+00  0.0000E+00  0.2400E+02  0.2400E+02
     36.394  0.0000E+00  0.0000E+00  0.2400E+02  0.2400E+02
     36.593  0.0000E+00  0.0000E+00  0.2400E+02  0.2400E+02
     36.793  0.0000E+00  0.0000E+00  0.2400E+02  0.2400E+02
     36.993  0.0000E+00  0.0000E+00  0.2400E+02  0.2400E+02
     37.193  0.0000E+00  0.0000E+00  0.2400E+02  0.2400E+02
     37.393  0.0000E+00  0.0000E+00  0.2400E+02  0.2400E+02
     37.593  0.0000E+00  0.0000E+00  0.2400E+02  0.2400E+02
     37.792  0.0000E+00  0.0000E+00  0.2400E+02  0.2400E+02
     37.992  0.0000E+00  0.0000E+00  0.2400E+02  0.2400E+02
     38.192  0.0000E+00  0.0000E+00  0.2400E+02  0.2400E+02
     38.392  0.0000E+00  0.0000E+00  0.2400E+02  0.2400E+02
     38.592  0.0000E+00  0.0000E+00  0.2400E+02  0.2400E+02
     38.791  0.0000E+00  0.0000E+00  0.2400E+02  0.2400E+02
     38.991  0.0000E+00  0.0000E+00  0.2400E+02  0.2400E+02
     39.191  0.0000E+00  0.0000E+00  0.2400E+02  0.2400E+02
     39.391  0.0000E+00  0.0000E+00  0.2400E+02  0.2400E+02
     39.591  0.0000E+00  0.0000E+00  0.2400E+02  0.2400E+02
     39.791  0.0000E+00  0.0000E+00  0.2400E+02  0.2400E+02
     39.990  0.0000E+00  0.0000E+00  0.2400E+02  0.2400E+02
     40.190  0.0000E+00  0.0000E+00  0.2400E+02  0.2400E+02
     40.390  0.0000E+00  0.0000E+00  0.2400E+02  0.2400E+02
     40.590  0.0000E+00  0.0000E+00  0.2400E+02  0.2400E+02
     40.790  0.0000E+00  0.0000E+00  0.2400E+02  0.2400E+02
     40.990  0.0000E+00  0.0000E+00  0.2400E+02  0.2400E+02
     41.189  0.0000E+00  0.0000E+00  0.2400E+02  0.2400E+02
     41.389  0.0000E+00  0.0000E+00  0.2400E+02  0.2400E+02
     41.589  0.0000E+00  0.0000E+00  0.2400E+02  0.2400E+02
     41.789  0.0000E+00  0.0000E+00  0.2400E+02  0.2400E+02
     41.989  0.0000E+00  0.0000E+00  0.2400E+02  0.2400E+02
     42.188  0.0000E+00  0.0000E+00  0.2400E+02  0.2400E+02
     42.388  0.0000E+00  0.0000E+00  0.2400E+02  0.2400E+02
     42.588  0.0000E+00  0.0000E+00  0.2400E+02  0.2400E+02
     42.58808845    -17.35828849  301      1.87450744      1.00000000
    -17.358  0.0000E+00  0.0000E+00  0.0000E+00  0.0000E+00  0.0000E+00  0.0000E+00  0.0000E+00  0.0000E+00  0.0000E+00  0.0000E+00  0.0000E+00  0.0000E+00  0.0000E+00  0.0000E+00  0.0000E+00  0.0000E+00  0.0000E+00  0.0000E+00
    -17.158  0.0000E+00  0.0000E+00  0.0000E+00  0.0000E+00  0.0000E+00  0.0000E+00  0.0000E+00  0.0000E+00  0.0000E+00  0.0000E+00  0.0000E+00  0.0000E+00  0.0000E+00  0.0000E+00  0.0000E+00  0.0000E+00  0.0000E+00  0.0000E+00
    -16.959  0.0000E+00  0.0000E+00  0.0000E+00  0.0000E+00  0.0000E+00  0.0000E+00  0.0000E+00  0.0000E+00  0.0000E+00  0.0000E+00  0.0000E+00  0.0000E+00  0.0000E+00  0.0000E+00  0.0000E+00  0.0000E+00  0.0000E+00  0.0000E+00
    -16.759  0.0000E+00  0.0000E+00  0.0000E+00  0.0000E+00  0.0000E+00  0.0000E+00  0.0000E+00  0.0000E+00  0.0000E+00  0.0000E+00  0.0000E+00  0.0000E+00  0.0000E+00  0.0000E+00  0.0000E+00  0.0000E+00  0.0000E+00  0.0000E+00
    -16.559  0.1545E-04  0.1549E-04  0.8193E-08  0.8214E-08  0.6346E-08  0.6361E-08  0.1828E-08  0.1833E-08  0.1808E-09  0.1813E-09  0.2189E-14  0.3045E-14  0.3950E-06  0.3959E-06  0.4432E-14  0.3048E-14  0.2693E-12  0.2700E-12
    -16.359  0.4357E-01  0.4357E-01  0.1769E-03  0.1770E-03  0.1380E-03  0.1381E-03  0.3893E-04  0.3894E-04  0.6125E-05  0.6128E-05  0.5788E-11  0.1047E-10  0.1103E-02  0.1103E-02  0.1065E-10  0.9348E-11  0.2719E-07  0.2719E-07
    -16.159  0.3395E-01  0.3394E-01  0.7916E-03  0.7917E-03  0.6331E-03  0.6331E-03  0.1656E-03  0.1656E-03  0.1082E-03  0.1082E-03  0.4927E-11  0.6396E-11  0.8370E-03  0.8369E-03  0.6261E-11  0.7426E-11  0.3435E-06  0.3435E-06
    -15.960  0.2269E-01  0.2269E-01  0.1164E-02  0.1164E-02  0.9786E-03  0.9786E-03  0.2147E-03  0.2147E-03  0.4788E-03  0.4789E-03  0.2548E-10  0.2824E-10  0.6100E-03  0.6100E-03  0.1976E-10  0.2180E-10  0.8720E-06  0.8721E-06
    -15.760  0.1163E+00  0.1163E+00  0.1045E-01  0.1045E-01  0.1689E-02  0.1689E-02  0.5419E-03  0.5419E-03  0.2423E-01  0.2424E-01  0.3481E-04  0.3483E-04  0.2075E-01  0.2075E-01  0.2297E-04  0.2298E-04  0.9726E-05  0.9727E-05
    -15.560  0.5344E-01  0.5342E-01  0.6065E-02  0.6063E-02  0.5191E-02  0.5191E-02  0.3731E-03  0.3731E-03  0.1427E-01  0.1427E-01  0.5074E-03  0.5075E-03  0.1228E-01  0.1228E-01  0.3760E-03  0.3761E-03  0.6344E-05  0.6343E-05
    -15.360  0.4174E-01  0.4174E-01  0.5917E-02  0.5917E-02  0.1021E-01  0.1021E-01  0.7907E-03  0.7909E-03  0.2905E-01  0.2906E-01  0.4923E-01  0.4925E-01  0.1707E-01  0.1707E-01  0.4791E-01  0.4792E-01  0.1605E-04  0.1606E-04
    -15.160  0.3129E-01  0.3128E-01  0.1207E-01  0.1207E-01  0.2581E-01  0.2581E-01  0.1165E-01  0.1165E-01  0.4802E-01  0.4801E-01  0.8488E-01  0.8487E-01  0.2778E-01  0.2777E-01  0.8417E-01  0.8416E-01  0.1219E-04  0.1219E-04
    -14.960  0.1876E-01  0.1875E-01  0.2564E-01  0.2565E-01  0.9460E-01  0.9461E-01  0.3292E-01  0.3293E-01  0.4907E-01  0.4908E-01  0.3986E-01  0.3986E-01  0.2206E-01  0.2206E-01  0.4041E-01  0.4040E-01  0.7369E-05  0.7372E-05
    -14.761  0.1537E-02  0.1536E-02  0.6830E-01  0.6829E-01  0.5698E-01  0.5696E-01  0.8247E-01  0.8246E-01  0.3104E-01  0.3103E-01  0.6152E-02  0.6149E-02  0.1496E-01  0.1496E-01  0.6241E-02  0.6238E-02  0.2936E-04  0.2936E-04
    -14.561  0.9558E-05  0.9541E-05  0.2367E-02  0.2364E-02  0.1493E-06  0.1487E-06  0.2951E-02  0.2946E-02  0.7700E-04  0.7686E-04  0.3142E-04  0.3136E-04  0.3627E-04  0.3620E-04  0.3142E-04  0.3136E-04  0.3959E-06  0.3952E-06
    -14.361  0.0000E+00  0.0000E+00  0.0000E+00  0.0000E+00  0.0000E+00  0.0000E+00  0.0000E+00  0.0000E+00  0.0000E+00  0.0000E+00  0.0000E+00  0.0000E+00  0.0000E+00  0.0000E+00  0.0000E+00  0.0000E+00  0.0000E+00  0.0000E+00
    -14.161  0.0000E+00  0.0000E+00  0.0000E+00  0.0000E+00  0.0000E+00  0.0000E+00  0.0000E+00  0.0000E+00  0.0000E+00  0.0000E+00  0.0000E+00  0.0000E+00  0.0000E+00  0.0000E+00  0.0000E+00  0.0000E+00  0.0000E+00  0.0000E+00
    -13.961  0.0000E+00  0.0000E+00  0.0000E+00  0.0000E+00  0.0000E+00  0.0000E+00  0.0000E+00  0.0000E+00  0.0000E+00  0.0000E+00  0.0000E+00  0.0000E+00  0.0000E+00  0.0000E+00  0.0000E+00  0.0000E+00  0.0000E+00  0.0000E+00
    -13.762  0.0000E+00  0.0000E+00  0.0000E+00  0.0000E+00  0.0000E+00  0.0000E+00  0.0000E+00  0.0000E+00  0.0000E+00  0.0000E+00  0.0000E+00  0.0000E+00  0.0000E+00  0.0000E+00  0.0000E+00  0.0000E+00  0.0000E+00  0.0000E+00
    -13.562  0.0000E+00  0.0000E+00  0.0000E+00  0.0000E+00  0.0000E+00  0.0000E+00  0.0000E+00  0.0000E+00  0.0000E+00  0.0000E+00  0.0000E+00  0.0000E+00  0.0000E+00  0.0000E+00  0.0000E+00  0.0000E+00  0.0000E+00  0.0000E+00
    -13.362  0.0000E+00  0.0000E+00  0.0000E+00  0.0000E+00  0.0000E+00  0.0000E+00  0.0000E+00  0.0000E+00  0.0000E+00  0.0000E+00  0.0000E+00  0.0000E+00  0.0000E+00  0.0000E+00  0.0000E+00  0.0000E+00  0.0000E+00  0.0000E+00
    -13.162  0.0000E+00  0.0000E+00  0.0000E+00  0.0000E+00  0.0000E+00  0.0000E+00  0.0000E+00  0.0000E+00  0.0000E+00  0.0000E+00  0.0000E+00  0.0000E+00  0.0000E+00  0.0000E+00  0.0000E+00  0.0000E+00  0.0000E+00  0.0000E+00
    -12.962  0.0000E+00  0.0000E+00  0.0000E+00  0.0000E+00  0.0000E+00  0.0000E+00  0.0000E+00  0.0000E+00  0.0000E+00  0.0000E+00  0.0000E+00  0.0000E+00  0.0000E+00  0.0000E+00  0.0000E+00  0.0000E+00  0.0000E+00  0.0000E+00
    -12.762  0.0000E+00  0.0000E+00  0.0000E+00  0.0000E+00  0.0000E+00  0.0000E+00  0.0000E+00  0.0000E+00  0.0000E+00  0.0000E+00  0.0000E+00  0.0000E+00  0.0000E+00  0.0000E+00  0.0000E+00  0.0000E+00  0.0000E+00  0.0000E+00
    -12.563  0.0000E+00  0.0000E+00  0.0000E+00  0.0000E+00  0.0000E+00  0.0000E+00  0.0000E+00  0.0000E+00  0.0000E+00  0.0000E+00  0.0000E+00  0.0000E+00  0.0000E+00  0.0000E+00  0.0000E+00  0.0000E+00  0.0000E+00  0.0000E+00
    -12.363  0.0000E+00  0.0000E+00  0.0000E+00  0.0000E+00  0.0000E+00  0.0000E+00  0.0000E+00  0.0000E+00  0.0000E+00  0.0000E+00  0.0000E+00  0.0000E+00  0.0000E+00  0.0000E+00  0.0000E+00  0.0000E+00  0.0000E+00  0.0000E+00
    -12.163  0.0000E+00  0.0000E+00  0.0000E+00  0.0000E+00  0.0000E+00  0.0000E+00  0.0000E+00  0.0000E+00  0.0000E+00  0.0000E+00  0.0000E+00  0.0000E+00  0.0000E+00  0.0000E+00  0.0000E+00  0.0000E+00  0.0000E+00  0.0000E+00
    -11.963  0.0000E+00  0.0000E+00  0.0000E+00  0.0000E+00  0.0000E+00  0.0000E+00  0.0000E+00  0.0000E+00  0.0000E+00  0.0000E+00  0.0000E+00  0.0000E+00  0.0000E+00  0.0000E+00  0.0000E+00  0.0000E+00  0.0000E+00  0.0000E+00
    -11.763  0.0000E+00  0.0000E+00  0.0000E+00  0.0000E+00  0.0000E+00  0.0000E+00  0.0000E+00  0.0000E+00  0.0000E+00  0.0000E+00  0.0000E+00  0.0000E+00  0.0000E+00  0.0000E+00  0.0000E+00  0.0000E+00  0.0000E+00  0.0000E+00
    -11.563  0.0000E+00  0.0000E+00  0.0000E+00  0.0000E+00  0.0000E+00  0.0000E+00  0.0000E+00  0.0000E+00  0.0000E+00  0.0000E+00  0.0000E+00  0.0000E+00  0.0000E+00  0.0000E+00  0.0000E+00  0.0000E+00  0.0000E+00  0.0000E+00
    -11.364  0.0000E+00  0.0000E+00  0.0000E+00  0.0000E+00  0.0000E+00  0.0000E+00  0.0000E+00  0.0000E+00  0.0000E+00  0.0000E+00  0.0000E+00  0.0000E+00  0.0000E+00  0.0000E+00  0.0000E+00  0.0000E+00  0.0000E+00  0.0000E+00
    -11.164  0.0000E+00  0.0000E+00  0.0000E+00  0.0000E+00  0.0000E+00  0.0000E+00  0.0000E+00  0.0000E+00  0.0000E+00  0.0000E+00  0.0000E+00  0.0000E+00  0.0000E+00  0.0000E+00  0.0000E+00  0.0000E+00  0.0000E+00  0.0000E+00
    -10.964  0.0000E+00  0.0000E+00  0.0000E+00  0.0000E+00  0.0000E+00  0.0000E+00  0.0000E+00  0.0000E+00  0.0000E+00  0.0000E+00  0.0000E+00  0.0000E+00  0.0000E+00  0.0000E+00  0.0000E+00  0.0000E+00  0.0000E+00  0.0000E+00
    -10.764  0.0000E+00  0.0000E+00  0.0000E+00  0.0000E+00  0.0000E+00  0.0000E+00  0.0000E+00  0.0000E+00  0.0000E+00  0.0000E+00  0.0000E+00  0.0000E+00  0.0000E+00  0.0000E+00  0.0000E+00  0.0000E+00  0.0000E+00  0.0000E+00
    -10.564  0.0000E+00  0.0000E+00  0.0000E+00  0.0000E+00  0.0000E+00  0.0000E+00  0.0000E+00  0.0000E+00  0.0000E+00  0.0000E+00  0.0000E+00  0.0000E+00  0.0000E+00  0.0000E+00  0.0000E+00  0.0000E+00  0.0000E+00  0.0000E+00
    -10.365  0.0000E+00  0.0000E+00  0.0000E+00  0.0000E+00  0.0000E+00  0.0000E+00  0.0000E+00  0.0000E+00  0.0000E+00  0.0000E+00  0.0000E+00  0.0000E+00  0.0000E+00  0.0000E+00  0.0000E+00  0.0000E+00  0.0000E+00  0.0000E+00
    -10.165  0.0000E+00  0.0000E+00  0.0000E+00  0.0000E+00  0.0000E+00  0.0000E+00  0.0000E+00  0.0000E+00  0.0000E+00  0.0000E+00  0.0000E+00  0.0000E+00  0.0000E+00  0.0000E+00  0.0000E+00  0.0000E+00  0.0000E+00  0.0000E+00
     -9.965  0.0000E+00  0.0000E+00  0.0000E+00  0.0000E+00  0.0000E+00  0.0000E+00  0.0000E+00  0.0000E+00  0.0000E+00  0.0000E+00  0.0000E+00  0.0000E+00  0.0000E+00  0.0000E+00  0.0000E+00  0.0000E+00  0.0000E+00  0.0000E+00
     -9.765  0.0000E+00  0.0000E+00  0.0000E+00  0.0000E+00  0.0000E+00  0.0000E+00  0.0000E+00  0.0000E+00  0.0000E+00  0.0000E+00  0.0000E+00  0.0000E+00  0.0000E+00  0.0000E+00  0.0000E+00  0.0000E+00  0.0000E+00  0.0000E+00
     -9.565  0.0000E+00  0.0000E+00  0.0000E+00  0.0000E+00  0.0000E+00  0.0000E+00  0.0000E+00  0.0000E+00  0.0000E+00  0.0000E+00  0.0000E+00  0.0000E+00  0.0000E+00  0.0000E+00  0.0000E+00  0.0000E+00  0.0000E+00  0.0000E+00
     -9.365  0.0000E+00  0.0000E+00  0.0000E+00  0.0000E+00  0.0000E+00  0.0000E+00  0.0000E+00  0.0000E+00  0.0000E+00  0.0000E+00  0.0000E+00  0.0000E+00  0.0000E+00  0.0000E+00  0.0000E+00  0.0000E+00  0.0000E+00  0.0000E+00
     -9.166  0.0000E+00  0.0000E+00  0.0000E+00  0.0000E+00  0.0000E+00  0.0000E+00  0.0000E+00  0.0000E+00  0.0000E+00  0.0000E+00  0.0000E+00  0.0000E+00  0.0000E+00  0.0000E+00  0.0000E+00  0.0000E+00  0.0000E+00  0.0000E+00
     -8.966  0.0000E+00  0.0000E+00  0.0000E+00  0.0000E+00  0.0000E+00  0.0000E+00  0.0000E+00  0.0000E+00  0.0000E+00  0.0000E+00  0.0000E+00  0.0000E+00  0.0000E+00  0.0000E+00  0.0000E+00  0.0000E+00  0.0000E+00  0.0000E+00
     -8.766  0.0000E+00  0.0000E+00  0.0000E+00  0.0000E+00  0.0000E+00  0.0000E+00  0.0000E+00  0.0000E+00  0.0000E+00  0.0000E+00  0.0000E+00  0.0000E+00  0.0000E+00  0.0000E+00  0.0000E+00  0.0000E+00  0.0000E+00  0.0000E+00
     -8.566  0.0000E+00  0.0000E+00  0.0000E+00  0.0000E+00  0.0000E+00  0.0000E+00  0.0000E+00  0.0000E+00  0.0000E+00  0.0000E+00  0.0000E+00  0.0000E+00  0.0000E+00  0.0000E+00  0.0000E+00  0.0000E+00  0.0000E+00  0.0000E+00
     -8.366  0.0000E+00  0.0000E+00  0.0000E+00  0.0000E+00  0.0000E+00  0.0000E+00  0.0000E+00  0.0000E+00  0.0000E+00  0.0000E+00  0.0000E+00  0.0000E+00  0.0000E+00  0.0000E+00  0.0000E+00  0.0000E+00  0.0000E+00  0.0000E+00
     -8.167  0.0000E+00  0.0000E+00  0.0000E+00  0.0000E+00  0.0000E+00  0.0000E+00  0.0000E+00  0.0000E+00  0.0000E+00  0.0000E+00  0.0000E+00  0.0000E+00  0.0000E+00  0.0000E+00  0.0000E+00  0.0000E+00  0.0000E+00  0.0000E+00
     -7.967  0.0000E+00  0.0000E+00  0.0000E+00  0.0000E+00  0.0000E+00  0.0000E+00  0.0000E+00  0.0000E+00  0.0000E+00  0.0000E+00  0.0000E+00  0.0000E+00  0.0000E+00  0.0000E+00  0.0000E+00  0.0000E+00  0.0000E+00  0.0000E+00
     -7.767  0.0000E+00  0.0000E+00  0.0000E+00  0.0000E+00  0.0000E+00  0.0000E+00  0.0000E+00  0.0000E+00  0.0000E+00  0.0000E+00  0.0000E+00  0.0000E+00  0.0000E+00  0.0000E+00  0.0000E+00  0.0000E+00  0.0000E+00  0.0000E+00
     -7.567  0.0000E+00  0.0000E+00  0.0000E+00  0.0000E+00  0.0000E+00  0.0000E+00  0.0000E+00  0.0000E+00  0.0000E+00  0.0000E+00  0.0000E+00  0.0000E+00  0.0000E+00  0.0000E+00  0.0000E+00  0.0000E+00  0.0000E+00  0.0000E+00
     -7.367  0.0000E+00  0.0000E+00  0.0000E+00  0.0000E+00  0.0000E+00  0.0000E+00  0.0000E+00  0.0000E+00  0.0000E+00  0.0000E+00  0.0000E+00  0.0000E+00  0.0000E+00  0.0000E+00  0.0000E+00  0.0000E+00  0.0000E+00  0.0000E+00