    6    6    1    2
  0.1074401E+02  0.4659658E-09  0.4659658E-09  0.2968997E-09  0.5000000E-15
  1.000000000000000E-004
  CAR 
 Rutile (band)                           
   32  450   24
 
  0.0000000E+00  0.0000000E+00  0.0000000E+00  0.2222222E-02
   1      -16.450654    -16.450678
   2      -15.312256    -15.312276
   3      -14.788524    -14.788558
   4      -14.788524    -14.788558
   5       -3.995880     -3.995796
   6       -3.568310     -3.568170
   7       -3.073904     -3.073921
   8       -2.088442     -2.088349
   9       -2.088442     -2.088349
  10       -0.884675     -0.884683
  11       -0.884675     -0.884683
  12       -0.251531     -0.251521
  13        0.991416      0.991422
  14        1.227092      1.227066
  15        1.227092      1.227066
  16        1.593664      1.593577
  17        3.259853      3.260197
  18        3.540217      3.540553
  19        3.807412      3.807622
  20        3.864446      3.864686
  21        3.864446      3.864686
  22        5.519080      5.519384
  23        5.824675      5.824842
  24        7.751294      7.751546
 
  0.0000000E+00  0.1020408E-01  0.0000000E+00  0.2222222E-02
   1      -16.450236    -16.450259
   2      -15.312189    -15.312209
   3      -14.788761    -14.788795
   4      -14.788550    -14.788584
   5       -3.995199     -3.995114
   6       -3.567907     -3.567767
   7       -3.073283     -3.073300
   8       -2.088401     -2.088307
   9       -2.088368     -2.088275
  10       -0.885327     -0.885335
  11       -0.884802     -0.884810
  12       -0.251486     -0.251475
  13        0.990720      0.990726
  14        1.224878      1.224852
  15        1.226022      1.225996
  16        1.593533      1.593446
  17        3.260499      3.260843
  18        3.541189      3.541525
  19        3.808236      3.808446
  20        3.864854      3.865094
  21        3.865072      3.865311
  22        5.519842      5.520142
  23        5.824208      5.824372
  24        7.751692      7.751242
 
  0.0000000E+00  0.2040816E-01  0.0000000E+00  0.2222222E-02
   1      -16.449286    -16.449310
   2      -15.312378    -15.312397
   3      -14.789645    -14.789679
   4      -14.788803    -14.788837
   5       -3.993157     -3.993072
   6       -3.566701     -3.566561
   7       -3.071420     -3.071437
   8       -2.088280     -2.088186
   9       -2.088148     -2.088055
  10       -0.887294     -0.887301
  11       -0.885196     -0.885204
  12       -0.251370     -0.251360
  13        0.988574      0.988580
  14        1.218205      1.218179
  15        1.222761      1.222735
  16        1.593071      1.592983
  17        3.262424      3.262769
  18        3.544093      3.544428
  19        3.810682      3.810892
  20        3.866061      3.866300
  21        3.866928      3.867168
  22        5.522063      5.522368
  23        5.822760      5.822927
  24        7.750164      7.750226
 
  0.0000000E+00  0.3061224E-01  0.0000000E+00  0.2222222E-02
   1      -16.447707    -16.447731
   2      -15.312770    -15.312790
   3      -14.791129    -14.791163
   4      -14.789244    -14.789277
   5       -3.989761     -3.989676
   6       -3.564694     -3.564554
   7       -3.068313     -3.068330
   8       -2.088078     -2.087984
   9       -2.087783     -2.087690
  10       -0.890566     -0.890574
  11       -0.885865     -0.885873
  12       -0.251174     -0.251164
  13        0.985008      0.985015
  14        1.207182      1.207157
  15        1.217368      1.217343
  16        1.592241      1.592154
  17        3.265616      3.265960
  18        3.548886      3.549221
  19        3.814739      3.814949
  20        3.868068      3.868307
  21        3.870010      3.870249
  22        5.525768      5.526073
  23        5.820357      5.820524
  24        7.748885      7.749054
 
  0.0000000E+00  0.4081633E-01  0.0000000E+00  0.2222222E-02
   1      -16.445496    -16.445520
   2      -15.313326    -15.313346
   3      -14.793192    -14.793226
   4      -14.789859    -14.789893
   5       -3.985020     -3.984935
   6       -3.561891     -3.561751
   7       -3.063957     -3.063974
   8       -2.087795     -2.087702
   9       -2.087274     -2.087180
  10       -0.895128     -0.895135
  11       -0.886815     -0.886822
  12       -0.250894     -0.250883
  13        0.980041      0.980047
  14        1.191950      1.191926
  15        1.209917      1.209892
  16        1.590965      1.590877
  17        3.270050      3.270393
  18        3.555502      3.555836
  19        3.820382      3.820591
  20        3.870871      3.871109
  21        3.874296      3.874534
  22        5.530961      5.531266
  23        5.817001      5.817172
  24        7.746955      7.746592
 
  0.0000000E+00  0.5102041E-01  0.0000000E+00  0.2222222E-02
   1      -16.442654    -16.442678
   2      -15.314055    -15.314075
   3      -14.795821    -14.795855
   4      -14.790648    -14.790682
   5       -3.978950     -3.978865
   6       -3.558299     -3.558159
   7       -3.058347     -3.058365
   8       -2.087433     -2.087340
   9       -2.086624     -2.086530
  10       -0.900957     -0.900964
  11       -0.888057     -0.888063
  12       -0.250523     -0.250512
  13        0.973693      0.973701
  14        1.172681      1.172657
  15        1.200499      1.200474
  16        1.589149      1.589062
  17        3.275690      3.276032
  18        3.563849      3.564182
  19        3.827576      3.827785
  20        3.874460      3.874699
  21        3.879761      3.880000
  22        5.537644      5.537948
  23        5.812704      5.812885
  24        7.742974      7.743050
 
  0.0000000E+00  0.6122449E-01  0.0000000E+00  0.2222222E-02
   1      -16.439187    -16.439211
   2      -15.315010    -15.315030
   3      -14.799002    -14.799036
   4      -14.791624    -14.791658
   5       -3.971572     -3.971487
   6       -3.553926     -3.553787
   7       -3.051477     -3.051494
   8       -2.086989     -2.086896
   9       -2.085835     -2.085742
  10       -0.908026     -0.908032
  11       -0.889611     -0.889616
  12       -0.250056     -0.250045
  13        0.965995      0.966003
  14        1.149565      1.149542
  15        1.189230      1.189206
  16        1.586698      1.586611
  17        3.282497      3.282839
  18        3.573812      3.574145
  19        3.836277      3.836485
  20        3.878828      3.879067
  21        3.886374      3.886612
  22        5.545822      5.546125
  23        5.807482      5.807649
  24        7.739676      7.739869
 
  0.0000000E+00  0.7142857E-01  0.0000000E+00  0.2222222E-02
   1      -16.435090    -16.435114
   2      -15.316119    -15.316139
   3      -14.802707    -14.802741
   4      -14.792756    -14.792789
   5       -3.962905     -3.962821
   6       -3.548783     -3.548644
   7       -3.043338     -3.043355
   8       -2.086466     -2.086373
   9       -2.084914     -2.084820
  10       -0.916303     -0.916309
  11       -0.891489     -0.891492
  12       -0.249484     -0.249473
  13        0.956980      0.956988
  14        1.122808      1.122786
  15        1.176247      1.176223
  16        1.583530      1.583442
  17        3.290423      3.290764
  18        3.585266      3.585597
  19        3.846437      3.846644
  20        3.883961      3.884200
  21        3.894093      3.894330
  22        5.555497      5.555801
  23        5.801354      5.801521
  24        7.736272      7.738583
 
  0.0000000E+00  0.8163265E-01  0.0000000E+00  0.2222222E-02
   1      -16.430346    -16.430370
   2      -15.317439    -15.317459
   3      -14.806916    -14.806949
   4      -14.794022    -14.794056
   5       -3.952980     -3.952896
   6       -3.542884     -3.542745
   7       -3.033921     -3.033938
   8       -2.085864     -2.085771
   9       -2.083863     -2.083769
  10       -0.925751     -0.925755
  11       -0.893717     -0.893719
  12       -0.248797     -0.248785
  13        0.946691      0.946700
  14        1.092615      1.092595
  15        1.161702      1.161678
  16        1.579578      1.579490
  17        3.299410      3.299750
  18        3.598061      3.598391
  19        3.857997      3.858203
  20        3.889845      3.890083
  21        3.902872      3.903109
  22        5.566665      5.566968
  23        5.794349      5.794517
  24        7.731764      7.731477
 
  0.0000000E+00  0.9183673E-01  0.0000000E+00  0.2222222E-02
   1      -16.425007    -16.425031
   2      -15.318988    -15.319008
   3      -14.811600    -14.811634
   4      -14.795489    -14.795523
   5       -3.941826     -3.941742
   6       -3.536242     -3.536104
   7       -3.023215     -3.023232
   8       -2.085187     -2.085094
   9       -2.082688     -2.082595
  10       -0.936328     -0.936331
  11       -0.896322     -0.896322
  12       -0.247983     -0.247971
  13        0.935166      0.935174
  14        1.059176      1.059157
  15        1.145760      1.145736
  16        1.574770      1.574681
  17        3.309400      3.309740
  18        3.612040      3.612369
  19        3.870898      3.871104
  20        3.896461      3.896699
  21        3.912659      3.912895
  22        5.579311      5.579613
  23        5.786508      5.786675
  24        7.725304      7.729906
 
  0.0000000E+00  0.1020408E+00  0.0000000E+00  0.2222222E-02
   1      -16.419023    -16.419047
   2      -15.320677    -15.320698
   3      -14.816706    -14.816739
   4      -14.797029    -14.797063
   5       -3.929481     -3.929397
   6       -3.528876     -3.528738
   7       -3.011208     -3.011225
   8       -2.084435     -2.084341
   9       -2.081397     -2.081303
  10       -0.947986     -0.947987
  11       -0.899332     -0.899330
  12       -0.247019     -0.247007
  13        0.922468      0.922478
  14        1.022686      1.022668
  15        1.128595      1.128572
  16        1.569076      1.568988
  17        3.320334      3.320673
  18        3.627039      3.627366
  19        3.885077      3.885281
  20        3.903790      3.904028
  21        3.923398      3.923633
  22        5.593410      5.593712
  23        5.777892      5.778060
  24        7.718572      7.722796
 
  0.0000000E+00  0.1122449E+00  0.0000000E+00  0.2222222E-02
   1      -16.412510    -16.412534
   2      -15.322690    -15.322711
   3      -14.822092    -14.822125
   4      -14.798783    -14.798817
   5       -3.915984     -3.915900
   6       -3.520803     -3.520666
   7       -2.997886     -2.997904
   8       -2.083609     -2.083516
   9       -2.079995     -2.079901
  10       -0.960674     -0.960675
  11       -0.902777     -0.902773
  12       -0.245913     -0.245900
  13        0.908616      0.908626
  14        0.983299      0.983283
  15        1.110392      1.110369
  16        1.562491      1.562403
  17        3.332147      3.332485
  18        3.642906      3.643232
  19        3.900466      3.900669
  20        3.911808      3.912045
  21        3.935025      3.935260
  22        5.608870      5.609170
  23        5.768637      5.768808
  24        7.716005      7.717155
 
  0.0000000E+00  0.1224490E+00  0.0000000E+00  0.2222222E-02
   1      -16.405345    -16.405369
   2      -15.325068    -15.325089
   3      -14.827997    -14.828030
   4      -14.800734    -14.800768
   5       -3.901380     -3.901297
   6       -3.512046     -3.511910
   7       -2.983235     -2.983253
   8       -2.082714     -2.082621
   9       -2.078489     -2.078396
  10       -0.974342     -0.974341
  11       -0.906700     -0.906694
  12       -0.244640     -0.244627
  13        0.893687      0.893698
  14        0.941245      0.941230
  15        1.091338      1.091314
  16        1.554960      1.554871
  17        3.344772      3.345109
  18        3.659434      3.659758
  19        3.916994      3.917197
  20        3.920493      3.920730
  21        3.947478      3.947712
  22        5.625515      5.625813
  23        5.758877      5.759047
  24        7.705328      7.704435
 
  0.0000000E+00  0.1326531E+00  0.0000000E+00  0.2222222E-02
   1      -16.397699    -16.397723
   2      -15.327752    -15.327773
   3      -14.834258    -14.834290
   4      -14.802771    -14.802804
   5       -3.885716     -3.885633
   6       -3.502630     -3.502494
   7       -2.967240     -2.967258
   8       -2.081750     -2.081657
   9       -2.076887     -2.076794
  10       -0.988925     -0.988923
  11       -0.911129     -0.911120
  12       -0.243181     -0.243168
  13        0.877709      0.877721
  14        0.896631      0.896618
  15        1.071609      1.071586
  16        1.546515      1.546426
  17        3.358142      3.358478
  18        3.676477      3.676800
  19        3.929818      3.930055
  20        3.934592      3.934793
  21        3.960687      3.960920
  22        5.642963      5.643261
  23        5.749070      5.749246
  24        7.703785      7.706385
 
  0.0000000E+00  0.1428571E+00  0.0000000E+00  0.2222222E-02
   1      -16.389342    -16.389366
   2      -15.330865    -15.330885
   3      -14.840766    -14.840798
   4      -14.805036    -14.805069
   5       -3.869045     -3.868963
   6       -3.492582     -3.492446
   7       -2.949883     -2.949901
   8       -2.080718     -2.080625
   9       -2.075199     -2.075105
  10       -1.004364     -1.004360
  11       -0.916103     -0.916092
  12       -0.241523     -0.241510
  13        0.849676      0.849665
  14        0.860787      0.860800
  15        1.051419      1.051395
  16        1.537147      1.537059
  17        3.372197      3.372532
  18        3.693856      3.694178
  19        3.939758      3.939994
  20        3.953199      3.953399
  21        3.974581      3.974813
  22        5.660188      5.660453
  23        5.740274      5.740455
  24        7.701419      7.689619
 
  0.0000000E+00  0.1530612E+00  0.0000000E+00  0.2222222E-02
   1      -16.380393    -16.380417
   2      -15.334321    -15.334342
   3      -14.847495    -14.847527
   4      -14.807439    -14.807472
   5       -3.851418     -3.851336
   6       -3.481929     -3.481795
   7       -2.931147     -2.931164
   8       -2.079620     -2.079527
   9       -2.073431     -2.073338
  10       -1.020585     -1.020580
  11       -0.921658     -0.921644
  12       -0.239646     -0.239632
  13        0.800502      0.800492
  14        0.842958      0.842972
  15        1.030945      1.030921
  16        1.526888      1.526799
  17        3.386870      3.387205
  18        3.711423      3.711744
  19        3.950282      3.950517
  20        3.972749      3.972949
  21        3.989087      3.989318
  22        5.674111      5.674375
  23        5.735535      5.735738
  24        7.680380      7.686478
 
  0.0000000E+00  0.1632653E+00  0.0000000E+00  0.2222222E-02
   1      -16.370862    -16.370886
   2      -15.338203    -15.338224
   3      -14.854396    -14.854428
   4      -14.809985    -14.810017
   5       -3.832895     -3.832813
   6       -3.470705     -3.470572
   7       -2.911012     -2.911030
   8       -2.078459     -2.078366
   9       -2.071594     -2.071501
  10       -1.037522     -1.037516
  11       -0.927833     -0.927816
  12       -0.237531     -0.237517
  13        0.749255      0.749246
  14        0.824283      0.824298
  15        1.010371      1.010346
  16        1.515757      1.515668
  17        3.402099      3.402432
  18        3.729026      3.729345
  19        3.961360      3.961595
  20        3.993180      3.993378
  21        4.004132      4.004362
  22        5.678732      5.678954
  23        5.740936      5.741179
  24        7.676776      7.687370
 
  0.0000000E+00  0.1734694E+00  0.0000000E+00  0.2222222E-02
   1      -16.360865    -16.360889
   2      -15.342566    -15.342587
   3      -14.861417    -14.861448
   4      -14.812803    -14.812836
   5       -3.813538     -3.813456
   6       -3.458944     -3.458811
   7       -2.889461     -2.889479
   8       -2.077241     -2.077148
   9       -2.069697     -2.069604
  10       -1.055102     -1.055094
  11       -0.934666     -0.934645
  12       -0.235160     -0.235145
  13        0.696028      0.696021
  14        0.804812      0.804827
  15        0.989864      0.989838
  16        1.503761      1.503672
  17        3.417818      3.418150
  18        3.746519      3.746837
  19        3.972956      3.973190
  20        4.014419      4.014616
  21        4.019635      4.019865
  22        5.672592      5.672784
  23        5.757940      5.758198
  24        7.668935      7.661763
 
  0.0000000E+00  0.1836735E+00  0.0000000E+00  0.2222222E-02
   1      -16.350194    -16.350218
   2      -15.347414    -15.347436
   3      -14.868492    -14.868523
   4      -14.815621    -14.815653
   5       -3.793409     -3.793328
   6       -3.446684     -3.446552
   7       -2.866475     -2.866492
   8       -2.075964     -2.075871
   9       -2.067750     -2.067657
  10       -1.073249     -1.073239
  11       -0.942190     -0.942166
  12       -0.232513     -0.232498
  13        0.641042      0.641036
  14        0.784627      0.784643
  15        0.969618      0.969591
  16        1.490969      1.490880
  17        3.433974      3.434305
  18        3.763774      3.764091
  19        3.985037      3.985270
  20        4.035522      4.035750
  21        4.036432      4.036628
  22        5.660666      5.660847
  23        5.781552      5.781834
  24        7.663689      7.657292
 
  0.0000000E+00  0.1938776E+00  0.0000000E+00  0.2222222E-02
   1      -16.339075    -16.339099
   2      -15.352831    -15.352852
   3      -14.875602    -14.875634
   4      -14.818591    -14.818623
   5       -3.772579     -3.772499
   6       -3.433967     -3.433836
   7       -2.842036     -2.842053
   8       -2.074633     -2.074540
   9       -2.065763     -2.065670
  10       -1.091885     -1.091873
  11       -0.950443     -0.950415
  12       -0.229570     -0.229554
  13        0.584357      0.584353
  14        0.763777      0.763794
  15        0.949763      0.949735
  16        1.477383      1.477294
  17        3.450498      3.450828
  18        3.780656      3.780972
  19        3.997564      3.997798
  20        4.051713      4.051941
  21        4.059152      4.059347
  22        5.646008      5.646196
  23        5.808773      5.809103
  24        7.654864      7.653195
 
  0.0000000E+00  0.2040816E+00  0.0000000E+00  0.2222222E-02
   1      -16.327373    -16.327397
   2      -15.358802    -15.358824
   3      -14.882623    -14.882654
   4      -14.821713    -14.821745
   5       -3.751113     -3.751033
   6       -3.420837     -3.420708
   7       -2.816125     -2.816143
   8       -2.073251     -2.073158
   9       -2.063747     -2.063654
  10       -1.110927     -1.110912
  11       -0.959449     -0.959418
  12       -0.226310     -0.226294
  13        0.526119      0.526115
  14        0.742316      0.742333
  15        0.930496      0.930466
  16        1.463043      1.462954
  17        3.467341      3.467670
  18        3.797078      3.797393
  19        4.010500      4.010732
  20        4.068131      4.068357
  21        4.082538      4.082732
  22        5.629740      5.629915
  23        5.838447      5.838732
  24        7.643401      7.650279
 
  0.0000000E+00  0.2142857E+00  0.0000000E+00  0.2222222E-02
   1      -16.315254    -16.315278
   2      -15.365390    -15.365412
   3      -14.889557    -14.889588
   4      -14.824938    -14.824970
   5       -3.729083     -3.729003
   6       -3.407344     -3.407216
   7       -2.788729     -2.788746
   8       -2.071821     -2.071728
   9       -2.061712     -2.061619
  10       -1.130292     -1.130275
  11       -0.969238     -0.969203
  12       -0.222712     -0.222696
  13        0.466416      0.466414
  14        0.720288      0.720306
  15        0.911937      0.911906
  16        1.448000      1.447911
  17        3.484439      3.484768
  18        3.812929      3.813244
  19        4.023803      4.024035
  20        4.084697      4.084922
  21        4.106538      4.106731
  22        5.612299      5.612472
  23        5.870108      5.870397
  24        7.621817      7.645560
 
  0.0000000E+00  0.2244898E+00  0.0000000E+00  0.2222222E-02
   1      -16.302456    -16.302481
   2      -15.372675    -15.372698
   3      -14.896279    -14.896310
   4      -14.828279    -14.828311
   5       -3.706560     -3.706481
   6       -3.393538     -3.393410
   7       -2.759830     -2.759847
   8       -2.070347     -2.070254
   9       -2.059669     -2.059576
  10       -1.149894     -1.149875
  11       -0.979827     -0.979788
  12       -0.218759     -0.218742
  13        0.405419      0.405418
  14        0.697801      0.697820
  15        0.894249      0.894216
  16        1.432293      1.432204
  17        3.501747      3.502074
  18        3.828132      3.828445
  19        4.037430      4.037661
  20        4.101334      4.101559
  21        4.131106      4.131298
  22        5.593916      5.594089
  23        5.903587      5.903884
  24        7.622190      7.614356
 
  0.0000000E+00  0.2346939E+00  0.0000000E+00  0.2222222E-02
   1      -16.289101    -16.289126
   2      -15.380603    -15.380626
   3      -14.902764    -14.902794
   4      -14.831680    -14.831712
   5       -3.683616     -3.683538
   6       -3.379474     -3.379348
   7       -2.729413     -2.729430
   8       -2.068831     -2.068738
   9       -2.057628     -2.057535
  10       -1.169644     -1.169623
  11       -0.991229     -0.991186
  12       -0.214425     -0.214407
  13        0.343226      0.343226
  14        0.674888      0.674908
  15        0.877540      0.877504
  16        1.415954      1.415866
  17        3.519210      3.519537
  18        3.842608      3.842921
  19        4.051340      4.051571
  20        4.117966      4.118190
  21        4.156205      4.156396
  22        5.574698      5.574869
  23        5.938723      5.939012
  24        7.613653      7.602177
 
  0.0000000E+00  0.2448980E+00  0.0000000E+00  0.2222222E-02
   1      -16.275237    -16.275262
   2      -15.389245    -15.389268
   3      -14.908962    -14.908992
   4      -14.835180    -14.835211
   5       -3.660326     -3.660249
   6       -3.365214     -3.365090
   7       -2.697469     -2.697485
   8       -2.067279     -2.067187
   9       -2.055601     -2.055508
  10       -1.189454     -1.189430
  11       -1.003450     -1.003403
  12       -0.209692     -0.209674
  13        0.279924      0.279925
  14        0.651601      0.651622
  15        0.861921      0.861883
  16        1.399023      1.398935
  17        3.536780      3.537106
  18        3.856294      3.856606
  19        4.065486      4.065715
  20        4.134517      4.134740
  21        4.181795      4.181984
  22        5.554719      5.554890
  23        5.975421      5.975709
  24        7.601592      7.612341
 
  0.0000000E+00  0.2551020E+00  0.0000000E+00  0.2222222E-02
   1      -16.260876    -16.260900
   2      -15.398625    -15.398648
   3      -14.914827    -14.914856
   4      -14.838771    -14.838802
   5       -3.636765     -3.636688
   6       -3.350820     -3.350698
   7       -2.663987     -2.664002
   8       -2.065697     -2.065604
   9       -2.053598     -2.053505
  10       -1.209230     -1.209204
  11       -1.016487     -1.016435
  12       -0.204541     -0.204522
  13        0.215616      0.215619
  14        0.627996      0.628018
  15        0.847492      0.847453
  16        1.381541      1.381452
  17        3.554406      3.554731
  18        3.869137      3.869449
  19        4.079821      4.080051
  20        4.150912      4.151134
  21        4.207838      4.208027
  22        5.534040      5.534205
  23        6.013815      6.013886
  24        7.604125      7.586796
 
  0.0000000E+00  0.2653061E+00  0.0000000E+00  0.2222222E-02
   1      -16.246039    -16.246063
   2      -15.408739    -15.408763
   3      -14.920235    -14.920264
   4      -14.842416    -14.842447
   5       -3.613008     -3.612932
   6       -3.336362     -3.336241
   7       -2.628961     -2.628977
   8       -2.064087     -2.063994
   9       -2.051629     -2.051536
  10       -1.228876     -1.228848
  11       -1.030328     -1.030272
  12       -0.198951     -0.198932
  13        0.150391      0.150394
  14        0.604130      0.604152
  15        0.834323      0.834281
  16        1.363537      1.363448
  17        3.572046      3.572371
  18        3.881093      3.881405
  19        4.094299      4.094527
  20        4.167085      4.167306
  21        4.234310      4.234498
  22        5.512694      5.512864
  23        6.053185      6.053470
  24        7.568074      7.577759
 
  0.0000000E+00  0.2755102E+00  0.0000000E+00  0.2222222E-02
   1      -16.230722    -16.230746
   2      -15.419641    -15.419665
   3      -14.925318    -14.925347
   4      -14.846170    -14.846201
   5       -3.589129     -3.589053
   6       -3.321911     -3.321792
   7       -2.592391     -2.592406
   8       -2.062455     -2.062362
   9       -2.049706     -2.049613
  10       -1.248296     -1.248265
  11       -1.044947     -1.044888
  12       -0.192905     -0.192886
  13        0.084359      0.084363
  14        0.580043      0.580066
  15        0.822521      0.822477
  16        1.345075      1.344986
  17        3.589652      3.589976
  18        3.892131      3.892443
  19        4.108869      4.109097
  20        4.182949      4.183169
  21        4.261162      4.261349
  22        5.490719      5.490888
  23        6.094105      6.094388
  24        7.557106      7.570233
 
  0.0000000E+00  0.2857143E+00  0.0000000E+00  0.2222222E-02
   1      -16.214961    -16.214986
   2      -15.431314    -15.431338
   3      -14.929964    -14.929993
   4      -14.850043    -14.850074
   5       -3.565203     -3.565128
   6       -3.307544     -3.307427
   7       -2.554275     -2.554290
   8       -2.060805     -2.060713
   9       -2.047837     -2.047744
  10       -1.267391     -1.267357
  11       -1.060314     -1.060250
  12       -0.186385     -0.186365
  13        0.017605      0.017610
  14        0.555785      0.555809
  15        0.812130      0.812083
  16        1.326177      1.326088
  17        3.607186      3.607509
  18        3.902225      3.902536
  19        4.123482      4.123709
  20        4.198442      4.198661
  21        4.288374      4.288561
  22        5.468152      5.468319
  23        6.136450      6.136569
  24        7.581563      7.548382
 
  0.0000000E+00  0.2959184E+00  0.0000000E+00  0.2222222E-02
   1      -16.198732    -16.198757
   2      -15.443657    -15.443681
   3      -14.934116    -14.934145
   4      -14.853927    -14.853958
   5       -3.541302     -3.541228
   6       -3.293342     -3.293226
   7       -2.514618     -2.514633
   8       -2.059144     -2.059052
   9       -2.046031     -2.045939
  10       -1.286060     -1.286024
  11       -1.076382     -1.076314
  12       -0.179373     -0.179352
  13       -0.049782     -0.049776
  14        0.531418      0.531442
  15        0.803198      0.803148
  16        1.306907      1.306818
  17        3.624608      3.624931
  18        3.911360      3.911671
  19        4.138088      4.138314
  20        4.213497      4.213715
  21        4.315920      4.316106
  22        5.445036      5.445206
  23        6.179660      6.179949
  24        7.561869      7.555451
 
  0.0000000E+00  0.3061224E+00  0.0000000E+00  0.2222222E-02
   1      -16.182043    -16.182068
   2      -15.456858    -15.456882
   3      -14.937801    -14.937829
   4      -14.857825    -14.857856
   5       -3.517504     -3.517432
   6       -3.279388     -3.279274
   7       -2.473436     -2.473450
   8       -2.057474     -2.057382
   9       -2.044299     -2.044206
  10       -1.304203     -1.304164
  11       -1.093098     -1.093027
  12       -0.171853     -0.171832
  13       -0.117716     -0.117709
  14        0.506984      0.507009
  15        0.795755      0.795704
  16        1.287312      1.287223
  17        3.641880      3.642201
  18        3.919520      3.919831
  19        4.152634      4.152859
  20        4.228052      4.228270
  21        4.343772      4.343957
  22        5.421370      5.421540
  23        6.224187      6.224464
  24        7.530137      7.558748
 
  0.0000000E+00  0.3163265E+00  0.0000000E+00  0.2222222E-02
   1      -16.164984    -16.165009
   2      -15.470804    -15.470829
   3      -14.941169    -14.941197
   4      -14.861817    -14.861847
   5       -3.493881     -3.493809
   6       -3.265774     -3.265663
   7       -2.430743     -2.430756
   8       -2.055806     -2.055713
   9       -2.042648     -2.042556
  10       -1.321719     -1.321678
  11       -1.110399     -1.110324
  12       -0.186114     -0.186107
  13       -0.163810     -0.163788
  14        0.482523      0.482548
  15        0.789824      0.789769
  16        1.267407      1.267319
  17        3.658960      3.659281
  18        3.926687      3.926997
  19        4.167067      4.167292
  20        4.242041      4.242258
  21        4.371901      4.372084
  22        5.397179      5.397350
  23        6.269710      6.270041
  24        7.517696      7.540494
 
  0.0000000E+00  0.3265306E+00  0.0000000E+00  0.2222222E-02
   1      -16.147523    -16.147548
   2      -15.485472    -15.485497
   3      -14.943926    -14.943954
   4      -14.865848    -14.865878
   5       -3.470502     -3.470431
   6       -3.252591     -3.252482
   7       -2.386556     -2.386569
   8       -2.054142     -2.054050
   9       -2.041087     -2.040995
  10       -1.338503     -1.338459
  11       -1.128199     -1.128121
  12       -0.254888     -0.254880
  13       -0.155229     -0.155207
  14        0.458080      0.458106
  15        0.785416      0.785360
  16        1.247259      1.247171
  17        3.675820      3.676140
  18        3.932885      3.933195
  19        4.181333      4.181557
  20        4.255404      4.255620
  21        4.400287      4.400470
  22        5.372516      5.372686
  23        6.316207      6.316501
  24        7.512178      7.511784
 