Rutile (band)                           
   1.00000000000000     
     4.659658    0.000000    0.000000
     0.000000    4.659658    0.000000
     0.000000    0.000000    2.968997
   Ti   O 
     2     4
Direct
  0.500000  0.500000  0.000000
  0.000000  0.000000  0.500000
  0.695315  0.695315  0.500000
  0.195315  0.804685  0.000000
  0.804685  0.195315  0.000000
  0.304685  0.304685  0.500000
 
   36   36   24
 0.46244E-01 0.58488E-01 0.10177     0.18288     0.28539     0.37730     0.43756     0.46245     0.45613     0.42277    
 0.36614     0.29249     0.21087     0.13217     0.69405E-01 0.30772E-01 0.12721E-01 0.61581E-02 0.46267E-02 0.61581E-02
 0.12721E-01 0.30772E-01 0.69405E-01 0.13217     0.21087     0.29249     0.36614     0.42277     0.45613     0.46245    
 0.43756     0.37730     0.28539     0.18288     0.10177     0.58488E-01 0.58488E-01 0.45697E-01 0.56298E-01 0.91839E-01
 0.15165     0.21933     0.27184     0.29460     0.28593     0.25231     0.20270     0.14669     0.94258E-01 0.53763E-01
 0.27830E-01 0.13635E-01 0.70365E-02 0.47991E-02 0.54260E-02 0.10324E-01 0.26654E-01 0.69304E-01 0.14719     0.24646    
 0.34914     0.44331     0.51693     0.56445     0.58792     0.59070     0.57256     0.52718     0.44466     0.32547    
 0.19836     0.10489     0.10177     0.56298E-01 0.43794E-01 0.51188E-01 0.74103E-01 0.10597     0.13389     0.14505    
 0.13539     0.11113     0.81836E-01 0.54926E-01 0.34333E-01 0.20631E-01 0.12262E-01 0.74612E-02 0.51953E-02 0.51090E-02
 0.81167E-02 0.19284E-01 0.53763E-01 0.13134     0.24296     0.36243     0.47458     0.56151     0.61577     0.64283    
 0.65103     0.64806     0.63737     0.61433     0.56571     0.47429     0.33859     0.19836     0.18288     0.91839E-01
 0.51188E-01 0.39641E-01 0.42033E-01 0.50138E-01 0.57278E-01 0.58253E-01 0.51721E-01 0.40956E-01 0.30061E-01 0.21172E-01
 0.14731E-01 0.10365E-01 0.74839E-02 0.57358E-02 0.52485E-02 0.67719E-02 0.13013E-01 0.33662E-01 0.92065E-01 0.20137    
 0.33266     0.46224     0.56718     0.63164     0.65985     0.66036     0.64591     0.63258     0.62993     0.63209    
 0.62094     0.57482     0.47429     0.32547     0.28539     0.15165     0.74103E-01 0.42033E-01 0.31831E-01 0.29231E-01
 0.28058E-01 0.26025E-01 0.22649E-01 0.18621E-01 0.14882E-01 0.11857E-01 0.95745E-02 0.79095E-02 0.67312E-02 0.61051E-02
 0.65665E-02 0.94951E-02 0.19197E-01 0.50129E-01 0.13129     0.26315     0.40725     0.53695     0.62336     0.66224    
 0.65803     0.61793     0.56413     0.53227     0.54417     0.58588     0.62148     0.62094     0.56571     0.44466    
 0.37730     0.21933     0.10597     0.50138E-01 0.29231E-01 0.21461E-01 0.17874E-01 0.15731E-01 0.14063E-01 0.12528E-01
 0.11172E-01 0.10065E-01 0.92076E-02 0.85418E-02 0.80129E-02 0.77926E-02 0.86608E-02 0.12434E-01 0.24645E-01 0.63640E-01
 0.16213     0.31053     0.46382     0.58623     0.65308     0.66531     0.61999     0.52152     0.41121     0.35714    
 0.39140     0.48928     0.58588     0.63209     0.61433     0.52718     0.43756     0.27184     0.13389     0.57278E-01
 0.28058E-01 0.17874E-01 0.13948E-01 0.12394E-01 0.11816E-01 0.11536E-01 0.11346E-01 0.11210E-01 0.11083E-01 0.10846E-01
 0.10390E-01 0.99797E-02 0.10662E-01 0.14512E-01 0.27594E-01 0.70289E-01 0.17856     0.33969     0.50031     0.61562    
 0.66717     0.65569     0.56970     0.41340     0.26166     0.20172     0.25037     0.39140     0.54417     0.62993    
 0.63737     0.57256     0.46245     0.29460     0.14505     0.58253E-01 0.26025E-01 0.15731E-01 0.12394E-01 0.11658E-01
 0.12020E-01 0.12677E-01 0.13293E-01 0.13732E-01 0.13857E-01 0.13481E-01 0.12540E-01 0.11514E-01 0.11641E-01 0.14936E-01
 0.27070E-01 0.67729E-01 0.17534     0.34394     0.51332     0.62885     0.67403     0.65073     0.54445     0.36315    
 0.20333     0.14881     0.20172     0.35714     0.53227     0.63258     0.64806     0.59070     0.45613     0.28593    
 0.13539     0.51721E-01 0.22649E-01 0.14063E-01 0.11816E-01 0.12020E-01 0.13259E-01 0.14632E-01 0.15694E-01 0.16220E-01
 0.16031E-01 0.15024E-01 0.13349E-01 0.11681E-01 0.11228E-01 0.13664E-01 0.23563E-01 0.57345E-01 0.15239     0.31782    
 0.49707     0.62466     0.67673     0.65987     0.56655     0.40492     0.25577     0.20333     0.26166     0.41121    
 0.56413     0.64591     0.65103     0.58792     0.42277     0.25231     0.11113     0.40956E-01 0.18621E-01 0.12528E-01
 0.11536E-01 0.12677E-01 0.14632E-01 0.16406E-01 0.17487E-01 0.17630E-01 0.16748E-01 0.14982E-01 0.12719E-01 0.10662E-01
 0.98036E-02 0.11404E-01 0.18812E-01 0.44266E-01 0.11950     0.26676     0.44758     0.59603     0.67009     0.67608    
 0.62037     0.51359     0.40492     0.36315     0.41340     0.52152     0.61793     0.66036     0.64283     0.56445    
 0.36614     0.20270     0.81836E-01 0.30061E-01 0.14882E-01 0.11172E-01 0.11346E-01 0.13293E-01 0.15694E-01 0.17487E-01
 0.18183E-01 0.17647E-01 0.16034E-01 0.13724E-01 0.11173E-01 0.89633E-02 0.78428E-02 0.87178E-02 0.13920E-01 0.32070E-01
 0.87611E-01 0.20726     0.37219     0.53417     0.64096     0.68066     0.66814     0.62037     0.56655     0.54445    
 0.56970     0.61999     0.65803     0.65985     0.61577     0.51693     0.29249     0.14669     0.54926E-01 0.21172E-01
 0.11857E-01 0.10065E-01 0.11210E-01 0.13732E-01 0.16220E-01 0.17630E-01 0.17647E-01 0.16410E-01 0.14297E-01 0.11735E-01
 0.91116E-02 0.68883E-02 0.56130E-02 0.58695E-02 0.91382E-02 0.21207E-01 0.60006E-01 0.15146     0.28903     0.44134    
 0.57347     0.65275     0.68066     0.67608     0.65987     0.65073     0.65569     0.66531     0.66224     0.63164    
 0.56151     0.44331     0.21087     0.94258E-01 0.34333E-01 0.14731E-01 0.95745E-02 0.92076E-02 0.11083E-01 0.13857E-01
 0.16031E-01 0.16748E-01 0.16034E-01 0.14297E-01 0.11944E-01 0.93226E-02 0.67822E-02 0.47174E-02 0.34765E-02 0.33236E-02
 0.50180E-02 0.12052E-01 0.36611E-01 0.10138     0.20965     0.33617     0.46461     0.57347     0.64096     0.67009    
 0.67673     0.67403     0.66717     0.65308     0.62336     0.56718     0.47458     0.34914     0.13217     0.53763E-01
 0.20631E-01 0.10365E-01 0.79095E-02 0.85418E-02 0.10846E-01 0.13481E-01 0.15024E-01 0.14982E-01 0.13724E-01 0.11735E-01
 0.93226E-02 0.67985E-02 0.45375E-02 0.28442E-02 0.18493E-02 0.15633E-02 0.22433E-02 0.56516E-02 0.18894E-01 0.58483E-01
 0.13501     0.23280     0.33617     0.44134     0.53417     0.59603     0.62466     0.62885     0.61562     0.58623    
 0.53695     0.46224     0.36243     0.24646     0.69405E-01 0.27830E-01 0.12262E-01 0.74839E-02 0.67312E-02 0.80129E-02
 0.10390E-01 0.12540E-01 0.13349E-01 0.12719E-01 0.11173E-01 0.91116E-02 0.67822E-02 0.45375E-02 0.27379E-02 0.15385E-02
 0.88401E-03 0.65122E-03 0.85734E-03 0.22167E-02 0.80588E-02 0.27355E-01 0.70355E-01 0.13501     0.20965     0.28903    
 0.37219     0.44758     0.49707     0.51332     0.50031     0.46382     0.40725     0.33266     0.24296     0.14719    
 0.30772E-01 0.13635E-01 0.74612E-02 0.57358E-02 0.61051E-02 0.77926E-02 0.99797E-02 0.11514E-01 0.11681E-01 0.10662E-01
 0.89633E-02 0.68883E-02 0.47174E-02 0.28442E-02 0.15385E-02 0.79203E-03 0.43358E-03 0.30444E-03 0.36000E-03 0.83549E-03
 0.29119E-02 0.99796E-02 0.27355E-01 0.58483E-01 0.10138     0.15146     0.20726     0.26676     0.31782     0.34394    
 0.33969     0.31053     0.26315     0.20137     0.13134     0.69304E-01 0.12721E-01 0.70365E-02 0.51953E-02 0.52485E-02
 0.65665E-02 0.86608E-02 0.10662E-01 0.11641E-01 0.11228E-01 0.98036E-02 0.78428E-02 0.56130E-02 0.34765E-02 0.18493E-02
 0.88401E-03 0.43358E-03 0.27347E-03 0.26047E-03 0.32160E-03 0.46685E-03 0.10184E-02 0.29119E-02 0.80588E-02 0.18894E-01
 0.36611E-01 0.60006E-01 0.87611E-01 0.11950     0.15239     0.17534     0.17856     0.16213     0.13129     0.92065E-01
 0.53763E-01 0.26654E-01 0.61581E-02 0.47991E-02 0.51090E-02 0.67719E-02 0.94951E-02 0.12434E-01 0.14512E-01 0.14936E-01
 0.13664E-01 0.11404E-01 0.87178E-02 0.58695E-02 0.33236E-02 0.15633E-02 0.65122E-03 0.30444E-03 0.26047E-03 0.59578E-03
 0.14555E-02 0.71299E-03 0.46685E-03 0.83549E-03 0.22167E-02 0.56516E-02 0.12052E-01 0.21207E-01 0.32070E-01 0.44266E-01
 0.57345E-01 0.67729E-01 0.70289E-01 0.63640E-01 0.50129E-01 0.33662E-01 0.19284E-01 0.10324E-01 0.46267E-02 0.54260E-02
 0.81167E-02 0.13013E-01 0.19197E-01 0.24645E-01 0.27594E-01 0.27070E-01 0.23563E-01 0.18812E-01 0.13920E-01 0.91382E-02
 0.50180E-02 0.22433E-02 0.85734E-03 0.36000E-03 0.32160E-03 0.14555E-02 0.16695E-01 0.14555E-02 0.32160E-03 0.36000E-03
 0.85734E-03 0.22433E-02 0.50180E-02 0.91382E-02 0.13920E-01 0.18812E-01 0.23563E-01 0.27070E-01 0.27594E-01 0.24645E-01
 0.19197E-01 0.13013E-01 0.81167E-02 0.54260E-02 0.61581E-02 0.10324E-01 0.19284E-01 0.33662E-01 0.50129E-01 0.63640E-01
 0.70289E-01 0.67729E-01 0.57345E-01 0.44266E-01 0.32070E-01 0.21207E-01 0.12052E-01 0.56516E-02 0.22167E-02 0.83549E-03
 0.46685E-03 0.71299E-03 0.14555E-02 0.59578E-03 0.26047E-03 0.30444E-03 0.65122E-03 0.15633E-02 0.33236E-02 0.58695E-02
 0.87178E-02 0.11404E-01 0.13664E-01 0.14936E-01 0.14512E-01 0.12434E-01 0.94951E-02 0.67719E-02 0.51090E-02 0.47991E-02
 0.12721E-01 0.26654E-01 0.53763E-01 0.92065E-01 0.13129     0.16213     0.17856     0.17534     0.15239     0.11950    
 0.87611E-01 0.60006E-01 0.36611E-01 0.18894E-01 0.80588E-02 0.29119E-02 0.10184E-02 0.46685E-03 0.32160E-03 0.26047E-03
 0.27347E-03 0.43358E-03 0.88401E-03 0.18493E-02 0.34765E-02 0.56130E-02 0.78428E-02 0.98036E-02 0.11228E-01 0.11641E-01
 0.10662E-01 0.86608E-02 0.65665E-02 0.52485E-02 0.51953E-02 0.70365E-02 0.30772E-01 0.69304E-01 0.13134     0.20137    
 0.26315     0.31053     0.33969     0.34394     0.31782     0.26676     0.20726     0.15146     0.10138     0.58483E-01
 0.27355E-01 0.99796E-02 0.29119E-02 0.83549E-03 0.36000E-03 0.30444E-03 0.43358E-03 0.79203E-03 0.15385E-02 0.28442E-02
 0.47174E-02 0.68883E-02 0.89633E-02 0.10662E-01 0.11681E-01 0.11514E-01 0.99797E-02 0.77926E-02 0.61051E-02 0.57358E-02
 0.74612E-02 0.13635E-01 0.69405E-01 0.14719     0.24296     0.33266     0.40725     0.46382     0.50031     0.51332    
 0.49707     0.44758     0.37219     0.28903     0.20965     0.13501     0.70355E-01 0.27355E-01 0.80588E-02 0.22167E-02
 0.85734E-03 0.65122E-03 0.88401E-03 0.15385E-02 0.27379E-02 0.45375E-02 0.67822E-02 0.91116E-02 0.11173E-01 0.12719E-01
 0.13349E-01 0.12540E-01 0.10390E-01 0.80129E-02 0.67312E-02 0.74839E-02 0.12262E-01 0.27830E-01 0.13217     0.24646    
 0.36243     0.46224     0.53695     0.58623     0.61562     0.62885     0.62466     0.59603     0.53417     0.44134    
 0.33617     0.23280     0.13501     0.58483E-01 0.18894E-01 0.56516E-02 0.22433E-02 0.15633E-02 0.18493E-02 0.28442E-02
 0.45375E-02 0.67985E-02 0.93226E-02 0.11735E-01 0.13724E-01 0.14982E-01 0.15024E-01 0.13481E-01 0.10846E-01 0.85418E-02
 0.79095E-02 0.10365E-01 0.20631E-01 0.53763E-01 0.21087     0.34914     0.47458     0.56718     0.62336     0.65308    
 0.66717     0.67403     0.67673     0.67009     0.64096     0.57347     0.46461     0.33617     0.20965     0.10138    
 0.36611E-01 0.12052E-01 0.50180E-02 0.33236E-02 0.34765E-02 0.47174E-02 0.67822E-02 0.93226E-02 0.11944E-01 0.14297E-01
 0.16034E-01 0.16748E-01 0.16031E-01 0.13857E-01 0.11083E-01 0.92076E-02 0.95745E-02 0.14731E-01 0.34333E-01 0.94258E-01
 0.29249     0.44331     0.56151     0.63164     0.66224     0.66531     0.65569     0.65073     0.65987     0.67608    
 0.68066     0.65275     0.57347     0.44134     0.28903     0.15146     0.60006E-01 0.21207E-01 0.91382E-02 0.58695E-02
 0.56130E-02 0.68883E-02 0.91116E-02 0.11735E-01 0.14297E-01 0.16410E-01 0.17647E-01 0.17630E-01 0.16220E-01 0.13732E-01
 0.11210E-01 0.10065E-01 0.11857E-01 0.21172E-01 0.54926E-01 0.14669     0.36614     0.51693     0.61577     0.65985    
 0.65803     0.61999     0.56970     0.54445     0.56655     0.62037     0.66814     0.68066     0.64096     0.53417    
 0.37219     0.20726     0.87611E-01 0.32070E-01 0.13920E-01 0.87178E-02 0.78428E-02 0.89633E-02 0.11173E-01 0.13724E-01
 0.16034E-01 0.17647E-01 0.18183E-01 0.17487E-01 0.15694E-01 0.13293E-01 0.11346E-01 0.11172E-01 0.14882E-01 0.30061E-01
 0.81836E-01 0.20270     0.42277     0.56445     0.64283     0.66036     0.61793     0.52152     0.41340     0.36315    
 0.40492     0.51359     0.62037     0.67608     0.67009     0.59603     0.44758     0.26676     0.11950     0.44266E-01
 0.18812E-01 0.11404E-01 0.98036E-02 0.10662E-01 0.12719E-01 0.14982E-01 0.16748E-01 0.17630E-01 0.17487E-01 0.16406E-01
 0.14632E-01 0.12677E-01 0.11536E-01 0.12528E-01 0.18621E-01 0.40956E-01 0.11113     0.25231     0.45613     0.58792    
 0.65103     0.64591     0.56413     0.41121     0.26166     0.20333     0.25577     0.40492     0.56655     0.65987    
 0.67673     0.62466     0.49707     0.31782     0.15239     0.57345E-01 0.23563E-01 0.13664E-01 0.11228E-01 0.11681E-01
 0.13349E-01 0.15024E-01 0.16031E-01 0.16220E-01 0.15694E-01 0.14632E-01 0.13259E-01 0.12020E-01 0.11816E-01 0.14063E-01
 0.22649E-01 0.51721E-01 0.13539     0.28593     0.46245     0.59070     0.64806     0.63258     0.53227     0.35714    
 0.20172     0.14881     0.20333     0.36315     0.54445     0.65073     0.67403     0.62885     0.51332     0.34394    
 0.17534     0.67729E-01 0.27070E-01 0.14936E-01 0.11641E-01 0.11514E-01 0.12540E-01 0.13481E-01 0.13857E-01 0.13732E-01
 0.13293E-01 0.12677E-01 0.12020E-01 0.11658E-01 0.12394E-01 0.15731E-01 0.26025E-01 0.58253E-01 0.14505     0.29460    
 0.43756     0.57256     0.63737     0.62993     0.54417     0.39140     0.25037     0.20172     0.26166     0.41340    
 0.56970     0.65569     0.66717     0.61562     0.50031     0.33969     0.17856     0.70289E-01 0.27594E-01 0.14512E-01
 0.10662E-01 0.99797E-02 0.10390E-01 0.10846E-01 0.11083E-01 0.11210E-01 0.11346E-01 0.11536E-01 0.11816E-01 0.12394E-01
 0.13948E-01 0.17874E-01 0.28058E-01 0.57278E-01 0.13389     0.27184     0.37730     0.52718     0.61433     0.63209    
 0.58588     0.48928     0.39140     0.35714     0.41121     0.52152     0.61999     0.66531     0.65308     0.58623    
 0.46382     0.31053     0.16213     0.63640E-01 0.24645E-01 0.12434E-01 0.86608E-02 0.77926E-02 0.80129E-02 0.85418E-02
 0.92076E-02 0.10065E-01 0.11172E-01 0.12528E-01 0.14063E-01 0.15731E-01 0.17874E-01 0.21461E-01 0.29231E-01 0.50138E-01
 0.10597     0.21933     0.28539     0.44466     0.56571     0.62094     0.62148     0.58588     0.54417     0.53227    
 0.56413     0.61793     0.65803     0.66224     0.62336     0.53695     0.40725     0.26315     0.13129     0.50129E-01
 0.19197E-01 0.94951E-02 0.65665E-02 0.61051E-02 0.67312E-02 0.79095E-02 0.95745E-02 0.11857E-01 0.14882E-01 0.18621E-01
 0.22649E-01 0.26025E-01 0.28058E-01 0.29231E-01 0.31831E-01 0.42033E-01 0.74103E-01 0.15165     0.18288     0.32547    
 0.47429     0.57482     0.62094     0.63209     0.62993     0.63258     0.64591     0.66036     0.65985     0.63164    
 0.56718     0.46224     0.33266     0.20137     0.92065E-01 0.33662E-01 0.13013E-01 0.67719E-02 0.52485E-02 0.57358E-02
 0.74839E-02 0.10365E-01 0.14731E-01 0.21172E-01 0.30061E-01 0.40956E-01 0.51721E-01 0.58253E-01 0.57278E-01 0.50138E-01
 0.42033E-01 0.39641E-01 0.51188E-01 0.91839E-01 0.10177     0.19836     0.33859     0.47429     0.56571     0.61433    
 0.63737     0.64806     0.65103     0.64283     0.61577     0.56151     0.47458     0.36243     0.24296     0.13134    
 0.53763E-01 0.19284E-01 0.81167E-02 0.51090E-02 0.51953E-02 0.74612E-02 0.12262E-01 0.20631E-01 0.34333E-01 0.54926E-01
 0.81836E-01 0.11113     0.13539     0.14505     0.13389     0.10597     0.74103E-01 0.51188E-01 0.43794E-01 0.56298E-01
 0.58488E-01 0.10489     0.19836     0.32547     0.44466     0.52718     0.57256     0.59070     0.58792     0.56445    
 0.51693     0.44331     0.34914     0.24646     0.14719     0.69304E-01 0.26654E-01 0.10324E-01 0.54260E-02 0.47991E-02
 0.70365E-02 0.13635E-01 0.27830E-01 0.53763E-01 0.94258E-01 0.14669     0.20270     0.25231     0.28593     0.29460    
 0.27184     0.21933     0.15165     0.91839E-01 0.56298E-01 0.45697E-01 0.43802E-01 0.55486E-01 0.96993E-01 0.17558    
 0.27632     0.36791     0.42850     0.45329     0.44603     0.41117     0.35327     0.27946     0.19930     0.12371    
 0.64826E-01 0.29077E-01 0.12285E-01 0.60620E-02 0.45865E-02 0.60620E-02 0.12285E-01 0.29077E-01 0.64826E-01 0.12371    
 0.19930     0.27946     0.35327     0.41117     0.44603     0.45329     0.42850     0.36791     0.27632     0.17558    
 0.96993E-01 0.55486E-01 0.55486E-01 0.43298E-01 0.53424E-01 0.87466E-01 0.14522     0.21110     0.26220     0.28361    
 0.27365     0.23923     0.18993     0.13583     0.86636E-01 0.49519E-01 0.25993E-01 0.13031E-01 0.68796E-02 0.47471E-02
 0.53537E-02 0.10046E-01 0.25461E-01 0.65511E-01 0.13968     0.23634     0.33780     0.43215     0.50746     0.55724    
 0.58248     0.58598     0.56724     0.52001     0.43528     0.31552     0.19052     0.99986E-01 0.96993E-01 0.53424E-01
 0.41538E-01 0.48585E-01 0.70347E-01 0.10052     0.12662     0.13633     0.12620     0.10272     0.75198E-01 0.50472E-01
 0.31823E-01 0.19450E-01 0.11818E-01 0.73438E-02 0.51689E-02 0.50572E-02 0.79030E-02 0.18420E-01 0.50801E-01 0.12472    
 0.23370     0.35201     0.46434     0.55330     0.61036     0.64010     0.65047     0.64858     0.63742     0.61231    
 0.56028     0.46523     0.32839     0.19052     0.17558     0.87466E-01 0.48585E-01 0.37627E-01 0.39863E-01 0.47413E-01
 0.53952E-01 0.54649E-01 0.48431E-01 0.38451E-01 0.28460E-01 0.20344E-01 0.14446E-01 0.10396E-01 0.76513E-02 0.59115E-02
 0.53484E-02 0.67011E-02 0.12451E-01 0.31500E-01 0.86199E-01 0.19198     0.32211     0.45165     0.55870     0.62638    
 0.65817     0.66279     0.65228     0.64119     0.63791     0.63689     0.62125     0.57017     0.46523     0.31552    
 0.27632     0.14522     0.70347E-01 0.39863E-01 0.30298E-01 0.27971E-01 0.27034E-01 0.25284E-01 0.22230E-01 0.18534E-01
 0.15087E-01 0.12287E-01 0.10156E-01 0.85618E-02 0.73625E-02 0.66180E-02 0.68726E-02 0.94247E-02 0.18125E-01 0.46141E-01
 0.12210     0.25130     0.39549     0.52689     0.61681     0.65981     0.66127     0.62897     0.58338     0.55607    
 0.56616     0.60106     0.62865     0.62125     0.56028     0.43528     0.36791     0.21110     0.10052     0.47413E-01
 0.27971E-01 0.20955E-01 0.17873E-01 0.16112E-01 0.14736E-01 0.13434E-01 0.12273E-01 0.11325E-01 0.10577E-01 0.99375E-02
 0.93045E-02 0.88229E-02 0.93052E-02 0.12473E-01 0.23199E-01 0.58019E-01 0.14993     0.29629     0.45105     0.57695    
 0.64815     0.66599     0.62994     0.54554     0.44900     0.40088     0.43208     0.51847     0.60106     0.63689    
 0.61231     0.52001     0.42850     0.26220     0.12662     0.53952E-01 0.27034E-01 0.17873E-01 0.14527E-01 0.13425E-01
 0.13260E-01 0.13362E-01 0.13517E-01 0.13664E-01 0.13703E-01 0.13438E-01 0.12681E-01 0.11723E-01 0.11765E-01 0.14820E-01
 0.26174E-01 0.63952E-01 0.16434     0.32327     0.48661     0.60675     0.66338     0.65914     0.58642     0.44967    
 0.31098     0.25327     0.30138     0.43208     0.56616     0.63791     0.63742     0.56724     0.45329     0.28361    
 0.13633     0.54649E-01 0.25284E-01 0.16112E-01 0.13425E-01 0.13324E-01 0.14401E-01 0.15793E-01 0.17068E-01 0.17990E-01
 0.18293E-01 0.17674E-01 0.16039E-01 0.14046E-01 0.13245E-01 0.15629E-01 0.26094E-01 0.61958E-01 0.16092     0.32616    
 0.49867     0.61982     0.67056     0.65531     0.56420     0.40385     0.25355     0.19848     0.25327     0.40088    
 0.55607     0.64119     0.64858     0.58598     0.44603     0.27365     0.12620     0.48431E-01 0.22230E-01 0.14736E-01
 0.13260E-01 0.14401E-01 0.16804E-01 0.19379E-01 0.21449E-01 0.22582E-01 0.22419E-01 0.20781E-01 0.17925E-01 0.14882E-01
 0.13264E-01 0.14746E-01 0.23231E-01 0.53055E-01 0.13977     0.30003     0.48148     0.61476     0.67251     0.66313    
 0.58333     0.44108     0.30401     0.25355     0.31098     0.44900     0.58338     0.65228     0.65047     0.58248    
 0.41117     0.23923     0.10272     0.38451E-01 0.18534E-01 0.13434E-01 0.13362E-01 0.15793E-01 0.19379E-01 0.22772E-01
 0.25087E-01 0.25784E-01 0.24617E-01 0.21787E-01 0.17955E-01 0.14271E-01 0.12127E-01 0.12792E-01 0.19075E-01 0.41566E-01
 0.10964     0.25031     0.43131     0.58448     0.66406     0.67614     0.62995     0.53711     0.44108     0.40385    
 0.44967     0.54554     0.62897     0.66279     0.64010     0.55724     0.35327     0.18993     0.75198E-01 0.28460E-01
 0.15087E-01 0.12273E-01 0.13517E-01 0.17068E-01 0.21449E-01 0.25087E-01 0.27013E-01 0.26793E-01 0.24545E-01 0.20882E-01
 0.16614E-01 0.12719E-01 0.10299E-01 0.10297E-01 0.14631E-01 0.30652E-01 0.80413E-01 0.19284     0.35589     0.52059    
 0.63221     0.67685     0.67021     0.62995     0.58333     0.56420     0.58642     0.62994     0.66127     0.65817    
 0.61036     0.50746     0.27946     0.13583     0.50472E-01 0.20344E-01 0.12287E-01 0.11325E-01 0.13664E-01 0.17990E-01
 0.22582E-01 0.25784E-01 0.26793E-01 0.25562E-01 0.22608E-01 0.18656E-01 0.14374E-01 0.10529E-01 0.79937E-02 0.74472E-02
 0.10081E-01 0.20730E-01 0.55127E-01 0.13941     0.27345     0.42642     0.56155     0.64493     0.67685     0.67614    
 0.66313     0.65531     0.65914     0.66599     0.65981     0.62638     0.55330     0.43215     0.19930     0.86636E-01
 0.31823E-01 0.14446E-01 0.10156E-01 0.10577E-01 0.13703E-01 0.18293E-01 0.22419E-01 0.24617E-01 0.24545E-01 0.22608E-01
 0.19423E-01 0.15542E-01 0.11496E-01 0.79345E-02 0.55203E-02 0.46532E-02 0.59068E-02 0.12115E-01 0.33693E-01 0.92138E-01
 0.19548     0.32111     0.45036     0.56155     0.63221     0.66406     0.67251     0.67056     0.66338     0.64815    
 0.61681     0.55870     0.46434     0.33780     0.12371     0.49519E-01 0.19450E-01 0.10396E-01 0.85618E-02 0.99375E-02
 0.13438E-01 0.17674E-01 0.20781E-01 0.21787E-01 0.20882E-01 0.18656E-01 0.15542E-01 0.11939E-01 0.83685E-02 0.53821E-02
 0.33803E-02 0.24968E-02 0.28720E-02 0.58571E-02 0.17370E-01 0.52324E-01 0.12334     0.21844     0.32111     0.42642    
 0.52059     0.58448     0.61476     0.61982     0.60675     0.57695     0.52689     0.45165     0.35201     0.23634    
 0.64826E-01 0.25993E-01 0.11818E-01 0.76513E-02 0.73625E-02 0.93045E-02 0.12681E-01 0.16039E-01 0.17925E-01 0.17955E-01
 0.16614E-01 0.14374E-01 0.11496E-01 0.83685E-02 0.55171E-02 0.33220E-02 0.19060E-02 0.12183E-02 0.12064E-02 0.23490E-02
 0.73272E-02 0.23981E-01 0.62662E-01 0.12334     0.19548     0.27345     0.35589     0.43131     0.48148     0.49867    
 0.48661     0.45105     0.39549     0.32211     0.23370     0.13968     0.29077E-01 0.13031E-01 0.73438E-02 0.59115E-02
 0.66180E-02 0.88229E-02 0.11723E-01 0.14046E-01 0.14882E-01 0.14271E-01 0.12719E-01 0.10529E-01 0.79345E-02 0.53821E-02
 0.33220E-02 0.19187E-02 0.10760E-02 0.63894E-03 0.52810E-03 0.86919E-03 0.25763E-02 0.85982E-02 0.23981E-01 0.52324E-01
 0.92138E-01 0.13941     0.19284     0.25031     0.30003     0.32616     0.32327     0.29629     0.25130     0.19198    
 0.12472     0.65511E-01 0.12285E-01 0.68796E-02 0.51689E-02 0.53484E-02 0.68726E-02 0.93052E-02 0.11765E-01 0.13245E-01
 0.13264E-01 0.12127E-01 0.10299E-01 0.79937E-02 0.55203E-02 0.33803E-02 0.19060E-02 0.10760E-02 0.67351E-03 0.48281E-03
 0.38221E-03 0.42235E-03 0.87560E-03 0.25763E-02 0.73272E-02 0.17370E-01 0.33693E-01 0.55127E-01 0.80413E-01 0.10964    
 0.13977     0.16092     0.16434     0.14993     0.12210     0.86199E-01 0.50801E-01 0.25461E-01 0.60620E-02 0.47471E-02
 0.50572E-02 0.67011E-02 0.94247E-02 0.12473E-01 0.14820E-01 0.15629E-01 0.14746E-01 0.12792E-01 0.10297E-01 0.74472E-02
 0.46532E-02 0.24968E-02 0.12183E-02 0.63894E-03 0.48281E-03 0.62287E-03 0.75021E-03 0.45441E-03 0.42235E-03 0.86919E-03
 0.23490E-02 0.58571E-02 0.12115E-01 0.20730E-01 0.30652E-01 0.41566E-01 0.53055E-01 0.61958E-01 0.63952E-01 0.58019E-01
 0.46141E-01 0.31500E-01 0.18420E-01 0.10046E-01 0.45865E-02 0.53537E-02 0.79030E-02 0.12451E-01 0.18125E-01 0.23199E-01
 0.26174E-01 0.26094E-01 0.23231E-01 0.19075E-01 0.14631E-01 0.10081E-01 0.59068E-02 0.28720E-02 0.12064E-02 0.52810E-03
 0.38221E-03 0.75021E-03 0.17353E-02 0.75021E-03 0.38221E-03 0.52810E-03 0.12064E-02 0.28720E-02 0.59068E-02 0.10081E-01
 0.14631E-01 0.19075E-01 0.23231E-01 0.26094E-01 0.26174E-01 0.23199E-01 0.18125E-01 0.12451E-01 0.79030E-02 0.53537E-02
 0.60620E-02 0.10046E-01 0.18420E-01 0.31500E-01 0.46141E-01 0.58019E-01 0.63952E-01 0.61958E-01 0.53055E-01 0.41566E-01
 0.30652E-01 0.20730E-01 0.12115E-01 0.58571E-02 0.23490E-02 0.86919E-03 0.42235E-03 0.45441E-03 0.75021E-03 0.62287E-03
 0.48281E-03 0.63894E-03 0.12183E-02 0.24968E-02 0.46532E-02 0.74472E-02 0.10297E-01 0.12792E-01 0.14746E-01 0.15629E-01
 0.14820E-01 0.12473E-01 0.94247E-02 0.67011E-02 0.50572E-02 0.47471E-02 0.12285E-01 0.25461E-01 0.50801E-01 0.86199E-01
 0.12210     0.14993     0.16434     0.16092     0.13977     0.10964     0.80413E-01 0.55127E-01 0.33693E-01 0.17370E-01
 0.73272E-02 0.25763E-02 0.87560E-03 0.42235E-03 0.38221E-03 0.48281E-03 0.67351E-03 0.10760E-02 0.19060E-02 0.33803E-02
 0.55203E-02 0.79937E-02 0.10299E-01 0.12127E-01 0.13264E-01 0.13245E-01 0.11765E-01 0.93052E-02 0.68726E-02 0.53484E-02
 0.51689E-02 0.68796E-02 0.29077E-01 0.65511E-01 0.12472     0.19198     0.25130     0.29629     0.32327     0.32616    
 0.30003     0.25031     0.19284     0.13941     0.92138E-01 0.52324E-01 0.23981E-01 0.85982E-02 0.25763E-02 0.86919E-03
 0.52810E-03 0.63894E-03 0.10760E-02 0.19187E-02 0.33220E-02 0.53821E-02 0.79345E-02 0.10529E-01 0.12719E-01 0.14271E-01
 0.14882E-01 0.14046E-01 0.11723E-01 0.88229E-02 0.66180E-02 0.59115E-02 0.73438E-02 0.13031E-01 0.64826E-01 0.13968    
 0.23370     0.32211     0.39549     0.45105     0.48661     0.49867     0.48148     0.43131     0.35589     0.27345    
 0.19548     0.12334     0.62662E-01 0.23981E-01 0.73272E-02 0.23490E-02 0.12064E-02 0.12183E-02 0.19060E-02 0.33220E-02
 0.55171E-02 0.83685E-02 0.11496E-01 0.14374E-01 0.16614E-01 0.17955E-01 0.17925E-01 0.16039E-01 0.12681E-01 0.93045E-02
 0.73625E-02 0.76513E-02 0.11818E-01 0.25993E-01 0.12371     0.23634     0.35201     0.45165     0.52689     0.57695    
 0.60675     0.61982     0.61476     0.58448     0.52059     0.42642     0.32111     0.21844     0.12334     0.52324E-01
 0.17370E-01 0.58571E-02 0.28720E-02 0.24968E-02 0.33803E-02 0.53821E-02 0.83685E-02 0.11939E-01 0.15542E-01 0.18656E-01
 0.20882E-01 0.21787E-01 0.20781E-01 0.17674E-01 0.13438E-01 0.99375E-02 0.85618E-02 0.10396E-01 0.19450E-01 0.49519E-01
 0.19930     0.33780     0.46434     0.55870     0.61681     0.64815     0.66338     0.67056     0.67251     0.66406    
 0.63221     0.56155     0.45036     0.32111     0.19548     0.92138E-01 0.33693E-01 0.12115E-01 0.59068E-02 0.46532E-02
 0.55203E-02 0.79345E-02 0.11496E-01 0.15542E-01 0.19423E-01 0.22608E-01 0.24545E-01 0.24617E-01 0.22419E-01 0.18293E-01
 0.13703E-01 0.10577E-01 0.10156E-01 0.14446E-01 0.31823E-01 0.86636E-01 0.27946     0.43215     0.55330     0.62638    
 0.65981     0.66599     0.65914     0.65531     0.66313     0.67614     0.67685     0.64493     0.56155     0.42642    
 0.27345     0.13941     0.55127E-01 0.20730E-01 0.10081E-01 0.74472E-02 0.79937E-02 0.10529E-01 0.14374E-01 0.18656E-01
 0.22608E-01 0.25562E-01 0.26793E-01 0.25784E-01 0.22582E-01 0.17990E-01 0.13664E-01 0.11325E-01 0.12287E-01 0.20344E-01
 0.50472E-01 0.13583     0.35327     0.50746     0.61036     0.65817     0.66127     0.62994     0.58642     0.56420    
 0.58333     0.62995     0.67021     0.67685     0.63221     0.52059     0.35589     0.19284     0.80413E-01 0.30652E-01
 0.14631E-01 0.10297E-01 0.10299E-01 0.12719E-01 0.16614E-01 0.20882E-01 0.24545E-01 0.26793E-01 0.27013E-01 0.25087E-01
 0.21449E-01 0.17068E-01 0.13517E-01 0.12273E-01 0.15087E-01 0.28460E-01 0.75198E-01 0.18993     0.41117     0.55724    
 0.64010     0.66279     0.62897     0.54554     0.44967     0.40385     0.44108     0.53711     0.62995     0.67614    
 0.66406     0.58448     0.43131     0.25031     0.10964     0.41566E-01 0.19075E-01 0.12792E-01 0.12127E-01 0.14271E-01
 0.17955E-01 0.21787E-01 0.24617E-01 0.25784E-01 0.25087E-01 0.22772E-01 0.19379E-01 0.15793E-01 0.13362E-01 0.13434E-01
 0.18534E-01 0.38451E-01 0.10272     0.23923     0.44603     0.58248     0.65047     0.65228     0.58338     0.44900    
 0.31098     0.25355     0.30401     0.44108     0.58333     0.66313     0.67251     0.61476     0.48148     0.30003    
 0.13977     0.53055E-01 0.23231E-01 0.14746E-01 0.13264E-01 0.14882E-01 0.17925E-01 0.20781E-01 0.22419E-01 0.22582E-01
 0.21449E-01 0.19379E-01 0.16804E-01 0.14401E-01 0.13260E-01 0.14736E-01 0.22230E-01 0.48431E-01 0.12620     0.27365    
 0.45329     0.58598     0.64858     0.64119     0.55607     0.40088     0.25327     0.19848     0.25355     0.40385    
 0.56420     0.65531     0.67056     0.61982     0.49867     0.32616     0.16092     0.61958E-01 0.26094E-01 0.15629E-01
 0.13245E-01 0.14046E-01 0.16039E-01 0.17674E-01 0.18293E-01 0.17990E-01 0.17068E-01 0.15793E-01 0.14401E-01 0.13324E-01
 0.13425E-01 0.16112E-01 0.25284E-01 0.54649E-01 0.13633     0.28361     0.42850     0.56724     0.63742     0.63791    
 0.56616     0.43208     0.30138     0.25327     0.31098     0.44967     0.58642     0.65914     0.66338     0.60675    
 0.48661     0.32327     0.16434     0.63952E-01 0.26174E-01 0.14820E-01 0.11765E-01 0.11723E-01 0.12681E-01 0.13438E-01
 0.13703E-01 0.13664E-01 0.13517E-01 0.13362E-01 0.13260E-01 0.13425E-01 0.14527E-01 0.17873E-01 0.27034E-01 0.53952E-01
 0.12662     0.26220     0.36791     0.52001     0.61231     0.63689     0.60106     0.51847     0.43208     0.40088    
 0.44900     0.54554     0.62994     0.66599     0.64815     0.57695     0.45105     0.29629     0.14993     0.58019E-01
 0.23199E-01 0.12473E-01 0.93052E-02 0.88229E-02 0.93045E-02 0.99375E-02 0.10577E-01 0.11325E-01 0.12273E-01 0.13434E-01