 vasp.5.3.3 18Dez12 (build Jun 24 2015 15:58:02) complex                        
  
 executed on             LinuxIFC date 2023.04.24  08:21:28
 running on   32 total cores
 distrk:  each k-point on   32 cores,    1 groups
 distr:  one band on NCORES_PER_BAND=   1 cores,   32 groups


--------------------------------------------------------------------------------------------------------


 INCAR:
 POTCAR:    PAW_PBE Ti 08Apr2002                  
 POTCAR:    PAW_PBE O 08Apr2002                   

 ----------------------------------------------------------------------------- 
|                                                                             |
|           W    W    AA    RRRRR   N    N  II  N    N   GGGG   !!!           |
|           W    W   A  A   R    R  NN   N  II  NN   N  G    G  !!!           |
|           W    W  A    A  R    R  N N  N  II  N N  N  G       !!!           |
|           W WW W  AAAAAA  RRRRR   N  N N  II  N  N N  G  GGG   !            |
|           WW  WW  A    A  R   R   N   NN  II  N   NN  G    G                |
|           W    W  A    A  R    R  N    N  II  N    N   GGGG   !!!           |
|                                                                             |
|      For optimal performance we recommend that you set                      |
|        NPAR = 4 - approx SQRT( number of cores)                             |
|      (number of cores/NPAR must be integer)                                 |
|      This setting will greatly improve the performance of VASP for DFT.     |
|      The default NPAR=number of cores might be grossly inefficient          |
|      on modern multi-core architectures or massively parallel machines.     |
|      Do your own testing.                                                   |
|      Unfortunately you need to use the default for hybrid, GW and RPA       |
|      calculations.                                                          |
|                                                                             |
 ----------------------------------------------------------------------------- 

 POTCAR:    PAW_PBE Ti 08Apr2002                  
   VRHFIN =Ti: d3 s1                                                            
   LEXCH  = PE                                                                  
   EATOM  =    94.7928 eV,    6.9671 Ry                                         
                                                                                
   TITEL  = PAW_PBE Ti 08Apr2002                                                
   LULTRA =        F    use ultrasoft PP ?                                      
   IUNSCR =        1    unscreen: 0-lin 1-nonlin 2-no                           
   RPACOR =    2.200    partial core radius                                     
   POMASS =   47.880; ZVAL   =    4.000    mass and valenz                      
   RCORE  =    2.800    outmost cutoff radius                                   
   RWIGS  =    2.500; RWIGS  =    1.323    wigner-seitz radius (au A)           
   ENMAX  =  178.330; ENMIN  =  133.747 eV                                      
   RCLOC  =    2.215    cutoff for local pot                                    
   LCOR   =        T    correct aug charges                                     
   LPAW   =        T    paw PP                                                  
   EAUG   =  328.883                                                            
   DEXC   =    0.000                                                            
   RMAX   =    2.868    core radius for proj-oper                               
   RAUG   =    1.300    factor for augmentation sphere                          
   RDEP   =    2.885    radius for radial grids                                 
   RDEPT  =    2.320    core radius for aug-charge                              
                                                                                
   Atomic configuration                                                         
    9 entries                                                                   
     n  l   j            E        occ.                                          
     1  0  0.50     -4865.3608   2.0000                                         
     2  0  0.50      -533.1367   2.0000                                         
     2  1  1.50      -440.5031   6.0000                                         
     3  0  0.50       -59.3186   2.0000                                         
     3  1  1.50       -35.7012   6.0000                                         
     3  2  2.50        -1.9157   3.0000                                         
     4  0  0.50        -3.7291   1.0000                                         
     4  1  1.50        -4.0817   0.0000                                         
     4  3  2.50        -1.3606   0.0000                                         
   Description                                                                  
     l       E           TYP  RCUT    TYP  RCUT                                 
     2     -1.9156924     23  2.800                                             
     2     -0.4062961     23  2.800                                             
     0     -3.7290832     23  2.800                                             
     0     20.4087390     23  2.800                                             
     1     -5.4423304     23  2.800                                             
  local pseudopotential read in
  partial core-charges read in
  partial kinetic energy density read in
  atomic valenz-charges read in
  non local Contribution for L=           2  read in
    real space projection operators read in
  non local Contribution for L=           2  read in
    real space projection operators read in
  non local Contribution for L=           0  read in
    real space projection operators read in
  non local Contribution for L=           0  read in
    real space projection operators read in
  non local Contribution for L=           1  read in
    real space projection operators read in
    PAW grid and wavefunctions read in
 
   number of l-projection  operators is LMAX  =           5
   number of lm-projection operators is LMMAX =          15
 
 POTCAR:    PAW_PBE O 08Apr2002                   
   VRHFIN =O: s2p4                                                              
   LEXCH  = PE                                                                  
   EATOM  =   432.3788 eV,   31.7789 Ry                                         
                                                                                
   TITEL  = PAW_PBE O 08Apr2002                                                 
   LULTRA =        F    use ultrasoft PP ?                                      
   IUNSCR =        1    unscreen: 0-lin 1-nonlin 2-no                           
   RPACOR =    1.200    partial core radius                                     
   POMASS =   16.000; ZVAL   =    6.000    mass and valenz                      
   RCORE  =    1.520    outmost cutoff radius                                   
   RWIGS  =    1.550; RWIGS  =    0.820    wigner-seitz radius (au A)           
   ENMAX  =  400.000; ENMIN  =  300.000 eV                                      
   ICORE  =        2    local potential                                         
   LCOR   =        T    correct aug charges                                     
   LPAW   =        T    paw PP                                                  
   EAUG   =  605.392                                                            
   DEXC   =    0.000                                                            
   RMAX   =    1.553    core radius for proj-oper                               
   RAUG   =    1.300    factor for augmentation sphere                          
   RDEP   =    1.550    radius for radial grids                                 
   RDEPT  =    1.329    core radius for aug-charge                              
                                                                                
   Atomic configuration                                                         
    4 entries                                                                   
     n  l   j            E        occ.                                          
     1  0  0.50      -514.6923   2.0000                                         
     2  0  0.50       -23.9615   2.0000                                         
     2  1  0.50        -9.0305   4.0000                                         
     3  2  1.50        -9.5241   0.0000                                         
   Description                                                                  
     l       E           TYP  RCUT    TYP  RCUT                                 
     0    -23.9615318     23  1.200                                             
     0     -9.5240782     23  1.200                                             
     1     -9.0304911     23  1.520                                             
     1      8.1634956     23  1.520                                             
     2     -9.5240782      7  1.500                                             
  local pseudopotential read in
  partial core-charges read in
  partial kinetic energy density read in
  kinetic energy density of atom read in
  atomic valenz-charges read in
  non local Contribution for L=           0  read in
    real space projection operators read in
  non local Contribution for L=           0  read in
    real space projection operators read in
  non local Contribution for L=           1  read in
    real space projection operators read in
  non local Contribution for L=           1  read in
    real space projection operators read in
    PAW grid and wavefunctions read in
 
   number of l-projection  operators is LMAX  =           4
   number of lm-projection operators is LMMAX =           8
 
  PAW_PBE Ti 08Apr2002                  :
 energy of atom  1       EATOM=  -94.7928
 kinetic energy error for atom=    0.0002 (will be added to EATOM!!)
  PAW_PBE O 08Apr2002                   :
 energy of atom  2       EATOM= -432.3788
 kinetic energy error for atom=    0.0224 (will be added to EATOM!!)
 
 
 POSCAR: Ti2 O4                                  
  positions in direct lattice
  No initial velocities read in
 exchange correlation table for  LEXCH =        8
   RHO(1)=    0.500       N(1)  =     2000
   RHO(2)=  100.500       N(2)  =     4000
 


--------------------------------------------------------------------------------------------------------


 ion  position               nearest neighbor table
   1  0.500  0.500  0.000-   6 1.95   3 1.95   3 1.95   6 1.95   5 1.98   4 1.98
   2  0.000  0.000  0.500-   4 1.95   5 1.95   4 1.95   5 1.95   3 1.98   6 1.98
   3  0.696  0.696  0.500-   1 1.95   1 1.95   2 1.98
   4  0.196  0.804  0.000-   2 1.95   2 1.95   1 1.98
   5  0.804  0.196  0.000-   2 1.95   2 1.95   1 1.98
   6  0.304  0.304  0.500-   1 1.95   1 1.95   2 1.98
 
  LATTYP: Found a simple tetragonal cell.
 ALAT       =     4.5998373239
 C/A-ratio  =     0.6433300466
  
  Lattice vectors:
  
 A1 = (   4.5998373239,   0.0000000000,   0.0000000000)
 A2 = (   0.0000000000,   4.5998373239,   0.0000000000)
 A3 = (   0.0000000000,   0.0000000000,   2.9592135600)


Analysis of symmetry for initial positions (statically):
=====================================================================
 Subroutine PRICEL returns:
 Original cell was already a primitive cell.
 

 Routine SETGRP: Setting up the symmetry group for a 
 simple tetragonal supercell.


 Subroutine GETGRP returns: Found 16 space group operations
 (whereof  8 operations were pure point group operations)
 out of a pool of 16 trial point group operations.


The static configuration has the point symmetry D_2h.
 The point group associated with its full space group is D_4h.


Analysis of symmetry for dynamics (positions and initial velocities):
=====================================================================
 Subroutine PRICEL returns:
 Original cell was already a primitive cell.
 

 Routine SETGRP: Setting up the symmetry group for a 
 simple tetragonal supercell.


 Subroutine GETGRP returns: Found 16 space group operations
 (whereof  8 operations were pure point group operations)
 out of a pool of 16 trial point group operations.


The dynamic configuration has the point symmetry D_2h.
 The point group associated with its full space group is D_4h.


Analysis of magnetic symmetry:
=====================================================================

 Subroutine MAGSYM returns: Found 16 space group operations
 (whereof  8 operations were pure point group operations)
 out of a pool of 16 trial space group operations
 (whereof  8 operations were pure point group operations)
 and found also     1 'primitive' translations


The magnetic configuration has the point symmetry D_2h.
 The point group associated with its full space group is D_4h.


 irot  :   1
 --------------------------------------------------------------------
 isymop:   1   0   0
           0   1   0
           0   0   1

 gtrans:     0.0000000     0.0000000     0.0000000

 ptrans:     0.0000000     0.0000000     0.0000000
 rotmap:
 (   1->   1)  (   2->   2)  (   3->   3)  (   4->   4)  (   5->   5) 
 (   6->   6) 


 irot  :   2
 --------------------------------------------------------------------
 isymop:  -1   0   0
           0  -1   0
           0   0  -1

 gtrans:     0.0000000     0.0000000     0.0000000

 ptrans:     0.0000000     0.0000000     0.0000000
 rotmap:
 (   1->   1)  (   2->   2)  (   3->   6)  (   4->   5)  (   5->   4) 
 (   6->   3) 


 irot  :   3
 --------------------------------------------------------------------
 isymop:  -1   0   0
           0  -1   0
           0   0   1

 gtrans:     0.0000000     0.0000000     0.0000000

 ptrans:     0.0000000     0.0000000     0.0000000
 rotmap:
 (   1->   1)  (   2->   2)  (   3->   6)  (   4->   5)  (   5->   4) 
 (   6->   3) 


 irot  :   4
 --------------------------------------------------------------------
 isymop:   1   0   0
           0   1   0
           0   0  -1

 gtrans:     0.0000000     0.0000000     0.0000000

 ptrans:     0.0000000     0.0000000     0.0000000
 rotmap:
 (   1->   1)  (   2->   2)  (   3->   3)  (   4->   4)  (   5->   5) 
 (   6->   6) 


 irot  :   5
 --------------------------------------------------------------------
 isymop:   0   1   0
           1   0   0
           0   0  -1

 gtrans:     0.0000000     0.0000000     0.0000000

 ptrans:     0.0000000     0.0000000     0.0000000
 rotmap:
 (   1->   1)  (   2->   2)  (   3->   3)  (   4->   5)  (   5->   4) 
 (   6->   6) 


 irot  :   6
 --------------------------------------------------------------------
 isymop:   0  -1   0
          -1   0   0
           0   0   1

 gtrans:     0.0000000     0.0000000     0.0000000

 ptrans:     0.0000000     0.0000000     0.0000000
 rotmap:
 (   1->   1)  (   2->   2)  (   3->   6)  (   4->   4)  (   5->   5) 
 (   6->   3) 


 irot  :   7
 --------------------------------------------------------------------
 isymop:   0  -1   0
          -1   0   0
           0   0  -1

 gtrans:     0.0000000     0.0000000     0.0000000

 ptrans:     0.0000000     0.0000000     0.0000000
 rotmap:
 (   1->   1)  (   2->   2)  (   3->   6)  (   4->   4)  (   5->   5) 
 (   6->   3) 


 irot  :   8
 --------------------------------------------------------------------
 isymop:   0   1   0
           1   0   0
           0   0   1

 gtrans:     0.0000000     0.0000000     0.0000000

 ptrans:     0.0000000     0.0000000     0.0000000
 rotmap:
 (   1->   1)  (   2->   2)  (   3->   3)  (   4->   5)  (   5->   4) 
 (   6->   6) 


 irot  :   9
 --------------------------------------------------------------------
 isymop:   0  -1   0
           1   0   0
           0   0   1

 gtrans:     0.5000000     0.5000000     0.5000000

 ptrans:     0.0000000     0.0000000     0.0000000
 rotmap:
 (   1->   2)  (   2->   1)  (   3->   5)  (   4->   3)  (   5->   6) 
 (   6->   4) 


 irot  :  10
 --------------------------------------------------------------------
 isymop:   0   1   0
          -1   0   0
           0   0  -1

 gtrans:     0.5000000     0.5000000     0.5000000

 ptrans:     0.0000000     0.0000000     0.0000000
 rotmap:
 (   1->   2)  (   2->   1)  (   3->   4)  (   4->   6)  (   5->   3) 
 (   6->   5) 


 irot  :  11
 --------------------------------------------------------------------
 isymop:   0   1   0
          -1   0   0
           0   0   1

 gtrans:     0.5000000     0.5000000     0.5000000

 ptrans:     0.0000000     0.0000000     0.0000000
 rotmap:
 (   1->   2)  (   2->   1)  (   3->   4)  (   4->   6)  (   5->   3) 
 (   6->   5) 


 irot  :  12
 --------------------------------------------------------------------
 isymop:   0  -1   0
           1   0   0
           0   0  -1

 gtrans:     0.5000000     0.5000000     0.5000000

 ptrans:     0.0000000     0.0000000     0.0000000
 rotmap:
 (   1->   2)  (   2->   1)  (   3->   5)  (   4->   3)  (   5->   6) 
 (   6->   4) 


 irot  :  13
 --------------------------------------------------------------------
 isymop:  -1   0   0
           0   1   0
           0   0  -1

 gtrans:     0.5000000     0.5000000     0.5000000

 ptrans:     0.0000000     0.0000000     0.0000000
 rotmap:
 (   1->   2)  (   2->   1)  (   3->   5)  (   4->   6)  (   5->   3) 
 (   6->   4) 


 irot  :  14
 --------------------------------------------------------------------
 isymop:   1   0   0
           0  -1   0
           0   0   1

 gtrans:     0.5000000     0.5000000     0.5000000

 ptrans:     0.0000000     0.0000000     0.0000000
 rotmap:
 (   1->   2)  (   2->   1)  (   3->   4)  (   4->   3)  (   5->   6) 
 (   6->   5) 


 irot  :  15
 --------------------------------------------------------------------
 isymop:   1   0   0
           0  -1   0
           0   0  -1

 gtrans:     0.5000000     0.5000000     0.5000000

 ptrans:     0.0000000     0.0000000     0.0000000
 rotmap:
 (   1->   2)  (   2->   1)  (   3->   4)  (   4->   3)  (   5->   6) 
 (   6->   5) 


 irot  :  16
 --------------------------------------------------------------------
 isymop:  -1   0   0
           0   1   0
           0   0   1

 gtrans:     0.5000000     0.5000000     0.5000000

 ptrans:     0.0000000     0.0000000     0.0000000
 rotmap:
 (   1->   2)  (   2->   1)  (   3->   5)  (   4->   6)  (   5->   3) 
 (   6->   4) 
 
 
 KPOINTS: Automatic mesh                          

Automatic generation of k-mesh.
Space group operators:
 irot       det(A)        alpha          n_x          n_y          n_z        tau_x        tau_y        tau_z
    1     1.000000     0.000001     1.000000     0.000000     0.000000     0.000000     0.000000     0.000000
    2    -1.000000     0.000001     1.000000     0.000000     0.000000     0.000000     0.000000     0.000000
    3     1.000000   180.000000    -0.000000    -0.000000     1.000000     0.000000     0.000000     0.000000
    4    -1.000000   180.000000    -0.000000    -0.000000     1.000000     0.000000     0.000000     0.000000
    5     1.000000   180.000000     0.707107     0.707107     0.000000     0.000000     0.000000     0.000000
    6    -1.000000   180.000000     0.707107     0.707107     0.000000     0.000000     0.000000     0.000000
    7     1.000000   180.000000     0.707107    -0.707107     0.000000     0.000000     0.000000     0.000000
    8    -1.000000   180.000000     0.707107    -0.707107     0.000000     0.000000     0.000000     0.000000
    9     1.000000    90.000000     0.000000     0.000000    -1.000000     0.500000     0.500000     0.500000
   10    -1.000000    90.000000     0.000000     0.000000    -1.000000     0.500000     0.500000     0.500000
   11     1.000000    90.000000    -0.000000    -0.000000     1.000000     0.500000     0.500000     0.500000
   12    -1.000000    90.000000    -0.000000    -0.000000     1.000000     0.500000     0.500000     0.500000
   13     1.000000   180.000000     0.000000     1.000000     0.000000     0.500000     0.500000     0.500000
   14    -1.000000   180.000000     0.000000     1.000000     0.000000     0.500000     0.500000     0.500000
   15     1.000000   180.000000     1.000000    -0.000000     0.000000     0.500000     0.500000     0.500000
   16    -1.000000   180.000000     1.000000    -0.000000     0.000000     0.500000     0.500000     0.500000
 
 Subroutine IBZKPT returns following result:
 ===========================================
 
 Found     75 irreducible k-points:
 
 Following reciprocal coordinates:
            Coordinates               Weight
  0.000000  0.000000  0.000000      1.000000
  0.125000  0.000000  0.000000      4.000000
  0.250000  0.000000  0.000000      4.000000
  0.375000  0.000000  0.000000      4.000000
  0.500000  0.000000  0.000000      2.000000
  0.125000  0.125000  0.000000      4.000000
  0.250000  0.125000  0.000000      8.000000
  0.375000  0.125000  0.000000      8.000000
  0.500000  0.125000  0.000000      4.000000
  0.250000  0.250000  0.000000      4.000000
  0.375000  0.250000  0.000000      8.000000
  0.500000  0.250000  0.000000      4.000000
  0.375000  0.375000  0.000000      4.000000
  0.500000  0.375000  0.000000      4.000000
  0.500000  0.500000  0.000000      1.000000
 -0.000000  0.000000  0.125000      2.000000
  0.125000 -0.000000  0.125000      8.000000
  0.250000  0.000000  0.125000      8.000000
  0.375000  0.000000  0.125000      8.000000
  0.500000  0.000000  0.125000      4.000000
  0.125000  0.125000  0.125000      8.000000
  0.250000  0.125000  0.125000     16.000000
  0.375000  0.125000  0.125000     16.000000
  0.500000  0.125000  0.125000      8.000000
  0.250000  0.250000  0.125000      8.000000
  0.375000  0.250000  0.125000     16.000000
  0.500000  0.250000  0.125000      8.000000
  0.375000  0.375000  0.125000      8.000000
  0.500000  0.375000  0.125000      8.000000
  0.500000  0.500000  0.125000      2.000000
 -0.000000  0.000000  0.250000      2.000000
  0.125000  0.000000  0.250000      8.000000
  0.250000 -0.000000  0.250000      8.000000
  0.375000  0.000000  0.250000      8.000000
  0.500000  0.000000  0.250000      4.000000
  0.125000  0.125000  0.250000      8.000000
  0.250000  0.125000  0.250000     16.000000
  0.375000  0.125000  0.250000     16.000000
  0.500000  0.125000  0.250000      8.000000
  0.250000  0.250000  0.250000      8.000000
  0.375000  0.250000  0.250000     16.000000
  0.500000  0.250000  0.250000      8.000000
  0.375000  0.375000  0.250000      8.000000
  0.500000  0.375000  0.250000      8.000000
  0.500000  0.500000  0.250000      2.000000
  0.000000  0.000000  0.375000      2.000000
  0.125000  0.000000  0.375000      8.000000
  0.250000  0.000000  0.375000      8.000000
  0.375000  0.000000  0.375000      8.000000
  0.500000  0.000000  0.375000      4.000000
  0.125000  0.125000  0.375000      8.000000
  0.250000  0.125000  0.375000     16.000000
  0.375000  0.125000  0.375000     16.000000
  0.500000  0.125000  0.375000      8.000000
  0.250000  0.250000  0.375000      8.000000
  0.375000  0.250000  0.375000     16.000000
  0.500000  0.250000  0.375000      8.000000
  0.375000  0.375000  0.375000      8.000000
  0.500000  0.375000  0.375000      8.000000
  0.500000  0.500000  0.375000      2.000000
 -0.000000  0.000000  0.500000      1.000000
  0.125000  0.000000  0.500000      4.000000
  0.250000  0.000000  0.500000      4.000000
  0.375000  0.000000  0.500000      4.000000
  0.500000 -0.000000  0.500000      2.000000
  0.125000  0.125000  0.500000      4.000000
  0.250000  0.125000  0.500000      8.000000
  0.375000  0.125000  0.500000      8.000000
  0.500000  0.125000  0.500000      4.000000
  0.250000  0.250000  0.500000      4.000000
  0.375000  0.250000  0.500000      8.000000
  0.500000  0.250000  0.500000      4.000000
  0.375000  0.375000  0.500000      4.000000
  0.500000  0.375000  0.500000      4.000000
  0.500000  0.500000  0.500000      1.000000
 
 Following cartesian coordinates:
            Coordinates               Weight
  0.000000  0.000000  0.000000      1.000000
  0.027175 -0.000000  0.000000      4.000000
  0.054350 -0.000000  0.000000      4.000000
  0.081525 -0.000000  0.000000      4.000000
  0.108699 -0.000000  0.000000      2.000000
  0.027175  0.027175  0.000000      4.000000
  0.054350  0.027175  0.000000      8.000000
  0.081525  0.027175  0.000000      8.000000
  0.108699  0.027175  0.000000      4.000000
  0.054350  0.054350  0.000000      4.000000
  0.081525  0.054350  0.000000      8.000000
  0.108699  0.054350  0.000000      4.000000
  0.081525  0.081525  0.000000      4.000000
  0.108699  0.081525  0.000000      4.000000
  0.108699  0.108699  0.000000      1.000000
 -0.000000 -0.000000  0.042241      2.000000
  0.027175 -0.000000  0.042241      8.000000
  0.054350 -0.000000  0.042241      8.000000
  0.081525 -0.000000  0.042241      8.000000
  0.108699 -0.000000  0.042241      4.000000
  0.027175  0.027175  0.042241      8.000000
  0.054350  0.027175  0.042241     16.000000
  0.081525  0.027175  0.042241     16.000000
  0.108699  0.027175  0.042241      8.000000
  0.054350  0.054350  0.042241      8.000000
  0.081525  0.054350  0.042241     16.000000
  0.108699  0.054350  0.042241      8.000000
  0.081525  0.081525  0.042241      8.000000
  0.108699  0.081525  0.042241      8.000000
  0.108699  0.108699  0.042241      2.000000
 -0.000000 -0.000000  0.084482      2.000000
  0.027175 -0.000000  0.084482      8.000000
  0.054350 -0.000000  0.084482      8.000000
  0.081525 -0.000000  0.084482      8.000000
  0.108699 -0.000000  0.084482      4.000000
  0.027175  0.027175  0.084482      8.000000
  0.054350  0.027175  0.084482     16.000000
  0.081525  0.027175  0.084482     16.000000
  0.108699  0.027175  0.084482      8.000000
  0.054350  0.054350  0.084482      8.000000
  0.081525  0.054350  0.084482     16.000000
  0.108699  0.054350  0.084482      8.000000
  0.081525  0.081525  0.084482      8.000000
  0.108699  0.081525  0.084482      8.000000
  0.108699  0.108699  0.084482      2.000000
 -0.000000 -0.000000  0.126723      2.000000
  0.027175 -0.000000  0.126723      8.000000
  0.054350 -0.000000  0.126723      8.000000
  0.081525 -0.000000  0.126723      8.000000
  0.108699 -0.000000  0.126723      4.000000
  0.027175  0.027175  0.126723      8.000000
  0.054350  0.027175  0.126723     16.000000
  0.081525  0.027175  0.126723     16.000000
  0.108699  0.027175  0.126723      8.000000
  0.054350  0.054350  0.126723      8.000000
  0.081525  0.054350  0.126723     16.000000
  0.108699  0.054350  0.126723      8.000000
  0.081525  0.081525  0.126723      8.000000
  0.108699  0.081525  0.126723      8.000000
  0.108699  0.108699  0.126723      2.000000
 -0.000000 -0.000000  0.168964      1.000000
  0.027175 -0.000000  0.168964      4.000000
  0.054350 -0.000000  0.168964      4.000000
  0.081525 -0.000000  0.168964      4.000000
  0.108699 -0.000000  0.168964      2.000000
  0.027175  0.027175  0.168964      4.000000
  0.054350  0.027175  0.168964      8.000000
  0.081525  0.027175  0.168964      8.000000
  0.108699  0.027175  0.168964      4.000000
  0.054350  0.054350  0.168964      4.000000
  0.081525  0.054350  0.168964      8.000000
  0.108699  0.054350  0.168964      4.000000
  0.081525  0.081525  0.168964      4.000000
  0.108699  0.081525  0.168964      4.000000
  0.108699  0.108699  0.168964      1.000000
 


--------------------------------------------------------------------------------------------------------




 Dimension of arrays:
   k-points           NKPTS =     75   k-points in BZ     NKDIM =     75   number of bands    NBANDS=     32
   number of dos      NEDOS =    301   number of ions     NIONS =      6
   non local maximal  LDIM  =      5   non local SUM 2l+1 LMDIM =     15
   total plane-waves  NPLWV =  31104
   max r-space proj   IRMAX =      1   max aug-charges    IRDMAX=  34505
   dimension x,y,z NGX =    36 NGY =   36 NGZ =   24
   dimension x,y,z NGXF=    72 NGYF=   72 NGZF=   48
   support grid    NGXF=    72 NGYF=   72 NGZF=   48
   ions per type =               2   4
 NGX,Y,Z   is equivalent  to a cutoff of  13.01, 13.01, 13.48 a.u.
 NGXF,Y,Z  is equivalent  to a cutoff of  26.02, 26.02, 26.97 a.u.


 I would recommend the setting:
   dimension x,y,z NGX =    34 NGY =   34 NGZ =   22
 SYSTEM =  Rutile (relax)                          
 POSCAR =  Ti2 O4                                  

 Startparameter for this run:
   NWRITE =      2    write-flag & timer
   PREC   = accura    normal or accurate (medium, high low for compatibility)
   ISTART =      0    job   : 0-new  1-cont  2-samecut
   ICHARG =      2    charge: 1-file 2-atom 10-const
   ISPIN  =      2    spin polarized calculation?
   LNONCOLLINEAR =      F non collinear calculations
   LSORBIT =      F    spin-orbit coupling
   INIWAV =      1    electr: 0-lowe 1-rand  2-diag
   LASPH  =      T    aspherical Exc in radial PAW
   METAGGA=      F    non-selfconsistent MetaGGA calc.

 Electronic Relaxation 1
   ENCUT  =  500.0 eV  36.75 Ry    6.06 a.u.   8.39  8.39  5.40*2*pi/ulx,y,z
   ENINI  =  500.0     initial cutoff
   ENAUG  =  605.4 eV  augmentation charge cutoff
   NELM   =    100;   NELMIN=  2; NELMDL= -5     # of ELM steps 
   EDIFF  = 0.1E-04   stopping-criterion for ELM
   LREAL  =      F    real-space projection
   NLSPLINE    = F    spline interpolate recip. space projectors
   LCOMPAT=      F    compatible to vasp.4.4
   GGA_COMPAT  = T    GGA compatible to vasp.4.4-vasp.4.6
   LMAXPAW     = -100 max onsite density
   LMAXMIX     =    2 max onsite mixed and CHGCAR
   VOSKOWN=      0    Vosko Wilk Nusair interpolation
   ROPT   =    0.00000   0.00000
 Ionic relaxation
   EDIFFG = -.1E-01   stopping-criterion for IOM
   NSW    =    200    number of steps for IOM
   NBLOCK =      1;   KBLOCK =    200    inner block; outer block 
   IBRION =      2    ionic relax: 0-MD 1-quasi-New 2-CG
   NFREE  =      1    steps in history (QN), initial steepest desc. (CG)
   ISIF   =      3    stress and relaxation
   IWAVPR =     11    prediction:  0-non 1-charg 2-wave 3-comb
   ISYM   =      2    0-nonsym 1-usesym 2-fastsym
   LCORR  =      T    Harris-Foulkes like correction to forces

   POTIM  = 0.5000    time-step for ionic-motion
   TEIN   =    0.0    initial temperature
   TEBEG  =    0.0;   TEEND  =   0.0 temperature during run
   SMASS  =  -3.00    Nose mass-parameter (am)
   estimated Nose-frequenzy (Omega)   =  0.10E-29 period in steps =****** mass=  -0.484E-27a.u.
   SCALEE = 1.0000    scale energy and forces
   NPACO  =    256;   APACO  = 16.0  distance and # of slots for P.C.
   PSTRESS=    0.0 pullay stress

  Mass of Ions in am
   POMASS =  47.88 16.00
  Ionic Valenz
   ZVAL   =   4.00  6.00
  Atomic Wigner-Seitz radii
   RWIGS  =  -1.00 -1.00
  virtual crystal weights 
   VCA    =   1.00  1.00
   NELECT =      32.0000    total number of electrons
   NUPDOWN=      -1.0000    fix difference up-down

 DOS related values:
   EMIN   =  10.00;   EMAX   =-10.00  energy-range for DOS
   EFERMI =   0.00
   ISMEAR =     0;   SIGMA  =   0.05  broadening in eV -4-tet -1-fermi 0-gaus

 Electronic relaxation 2 (details)
   IALGO  =     38    algorithm
   LDIAG  =      T    sub-space diagonalisation (order eigenvalues)
   LSUBROT=      T    optimize rotation matrix (better conditioning)
   TURBO    =      0    0=normal 1=particle mesh
   IRESTART =      0    0=no restart 2=restart with 2 vectors
   NREBOOT  =      0    no. of reboots
   NMIN     =      0    reboot dimension
   EREF     =   0.00    reference energy to select bands
   IMIX   =      4    mixing-type and parameters
     AMIX     =   0.40;   BMIX     =  1.00
     AMIX_MAG =   1.60;   BMIX_MAG =  1.00
     AMIN     =   0.10
     WC   =   100.;   INIMIX=   1;  MIXPRE=   1;  MAXMIX= -45

 Intra band minimization:
   WEIMIN = 0.0010     energy-eigenvalue tresh-hold
   EBREAK =  0.78E-07  absolut break condition
   DEPER  =   0.30     relativ break condition  

   TIME   =   0.40     timestep for ELM

  volume/ion in A,a.u.               =      10.44        70.42
  Fermi-wavevector in a.u.,A,eV,Ry     =   1.308894  2.473451 23.309541  1.713203
  Thomas-Fermi vector in A             =   2.439530
 
 Write flags
   LWAVE  =      T    write WAVECAR
   LCHARG =      T    write CHGCAR
   LVTOT  =      T    write LOCPOT, total local potential
   LVHAR  =      F    write LOCPOT, Hartree potential only
   LELF   =      T    write electronic localiz. function (ELF)
   LORBIT =     12    0 simple, 1 ext, 2 COOP (PROOUT)


 Dipole corrections
   LMONO  =      F    monopole corrections only (constant potential shift)
   LDIPOL =      F    correct potential (dipole corrections)
   IDIPOL =      0    1-x, 2-y, 3-z, 4-all directions 
   EPSILON=  1.0000000 bulk dielectric constant

 Exchange correlation treatment:
   GGA     =    --    GGA type
   LEXCH   =     8    internal setting for exchange type
   VOSKOWN=      0    Vosko Wilk Nusair interpolation
   LHFCALC =     F    Hartree Fock is set to
   LHFONE  =     F    Hartree Fock one center treatment
   AEXX    =    0.0000 exact exchange contribution

 Linear response parameters
   LEPSILON=     F    determine dielectric tensor
   LRPA    =     F    only Hartree local field effects (RPA)
   LNABLA  =     F    use nabla operator in PAW spheres
   LVEL    =     F    velocity operator in full k-point grid
   LINTERFAST=   F  fast interpolation
   KINTER  =     0    interpolate to denser k-point grid
   CSHIFT  =0.1000    complex shift for real part using Kramers Kronig
   OMEGAMAX=  -1.0    maximum frequency
   DEG_THRESHOLD= 0.2000000E-02 threshold for treating states as degnerate
   RTIME   =    0.100 relaxation time in fs

 Orbital magnetization related:
   ORBITALMAG=     F  switch on orbital magnetization
   LCHIMAG   =     F  perturbation theory with respect to B field
   DQ        =  0.001000  dq finite difference perturbation B field



--------------------------------------------------------------------------------------------------------


 conjugate gradient relaxation of ions
 charge density and potential will be updated during run
 spin polarized calculation
 Variant of blocked Davidson
 Davidson routine will perform the subspace rotation
 perform sub-space diagonalisation
    after iterative eigenvector-optimisation
 modified Broyden-mixing scheme, WC =      100.0
 initial mixing is a Kerker type mixing with AMIX =  0.4000 and BMIX =      1.0000
 Hartree-type preconditioning will be used
 using additional bands           16
 reciprocal scheme for non local part
 use partial core corrections
 calculate Harris-corrections to forces 
   (improved forces if not selfconsistent)
 use gradient corrections 
 use of overlap-Matrix (Vanderbilt PP)
 Gauss-broadening in eV      SIGMA  =   0.05


--------------------------------------------------------------------------------------------------------


  energy-cutoff  :      500.00
  volume of cell :       62.61
      direct lattice vectors                 reciprocal lattice vectors
     4.599837324  0.000000000  0.000000000     0.217398993 -0.000000000  0.000000000
     0.000000000  4.599837324  0.000000000     0.000000000  0.217398993  0.000000000
     0.000000000  0.000000000  2.959213560    -0.000000000 -0.000000000  0.337927622

  length of vectors
     4.599837324  4.599837324  2.959213560     0.217398993  0.217398993  0.337927622


 
 k-points in units of 2pi/SCALE and weight: Automatic mesh                          
   0.00000000  0.00000000  0.00000000       0.002
   0.02717487 -0.00000000  0.00000000       0.008
   0.05434975 -0.00000000  0.00000000       0.008
   0.08152462 -0.00000000  0.00000000       0.008
   0.10869950 -0.00000000  0.00000000       0.004
   0.02717487  0.02717487  0.00000000       0.008
   0.05434975  0.02717487  0.00000000       0.016
   0.08152462  0.02717487  0.00000000       0.016
   0.10869950  0.02717487  0.00000000       0.008
   0.05434975  0.05434975  0.00000000       0.008
   0.08152462  0.05434975  0.00000000       0.016
   0.10869950  0.05434975  0.00000000       0.008
   0.08152462  0.08152462  0.00000000       0.008
   0.10869950  0.08152462  0.00000000       0.008
   0.10869950  0.10869950  0.00000000       0.002
  -0.00000000 -0.00000000  0.04224095       0.004
   0.02717487 -0.00000000  0.04224095       0.016
   0.05434975 -0.00000000  0.04224095       0.016
   0.08152462 -0.00000000  0.04224095       0.016
   0.10869950 -0.00000000  0.04224095       0.008
   0.02717487  0.02717487  0.04224095       0.016
   0.05434975  0.02717487  0.04224095       0.031
   0.08152462  0.02717487  0.04224095       0.031
   0.10869950  0.02717487  0.04224095       0.016
   0.05434975  0.05434975  0.04224095       0.016
   0.08152462  0.05434975  0.04224095       0.031
   0.10869950  0.05434975  0.04224095       0.016
   0.08152462  0.08152462  0.04224095       0.016
   0.10869950  0.08152462  0.04224095       0.016
   0.10869950  0.10869950  0.04224095       0.004
  -0.00000000 -0.00000000  0.08448191       0.004
   0.02717487 -0.00000000  0.08448191       0.016
   0.05434975 -0.00000000  0.08448191       0.016
   0.08152462 -0.00000000  0.08448191       0.016
   0.10869950 -0.00000000  0.08448191       0.008
   0.02717487  0.02717487  0.08448191       0.016
   0.05434975  0.02717487  0.08448191       0.031
   0.08152462  0.02717487  0.08448191       0.031
   0.10869950  0.02717487  0.08448191       0.016
   0.05434975  0.05434975  0.08448191       0.016
   0.08152462  0.05434975  0.08448191       0.031
   0.10869950  0.05434975  0.08448191       0.016
   0.08152462  0.08152462  0.08448191       0.016
   0.10869950  0.08152462  0.08448191       0.016
   0.10869950  0.10869950  0.08448191       0.004
  -0.00000000 -0.00000000  0.12672286       0.004
   0.02717487 -0.00000000  0.12672286       0.016
   0.05434975 -0.00000000  0.12672286       0.016
   0.08152462 -0.00000000  0.12672286       0.016
   0.10869950 -0.00000000  0.12672286       0.008
   0.02717487  0.02717487  0.12672286       0.016
   0.05434975  0.02717487  0.12672286       0.031
   0.08152462  0.02717487  0.12672286       0.031
   0.10869950  0.02717487  0.12672286       0.016
   0.05434975  0.05434975  0.12672286       0.016
   0.08152462  0.05434975  0.12672286       0.031
   0.10869950  0.05434975  0.12672286       0.016
   0.08152462  0.08152462  0.12672286       0.016
   0.10869950  0.08152462  0.12672286       0.016
   0.10869950  0.10869950  0.12672286       0.004
  -0.00000000 -0.00000000  0.16896381       0.002
   0.02717487 -0.00000000  0.16896381       0.008
   0.05434975 -0.00000000  0.16896381       0.008
   0.08152462 -0.00000000  0.16896381       0.008
   0.10869950 -0.00000000  0.16896381       0.004
   0.02717487  0.02717487  0.16896381       0.008
   0.05434975  0.02717487  0.16896381       0.016
   0.08152462  0.02717487  0.16896381       0.016
   0.10869950  0.02717487  0.16896381       0.008
   0.05434975  0.05434975  0.16896381       0.008
   0.08152462  0.05434975  0.16896381       0.016
   0.10869950  0.05434975  0.16896381       0.008
   0.08152462  0.08152462  0.16896381       0.008
   0.10869950  0.08152462  0.16896381       0.008
   0.10869950  0.10869950  0.16896381       0.002
 
 k-points in reciprocal lattice and weights: Automatic mesh                          
   0.00000000  0.00000000  0.00000000       0.002
   0.12500000  0.00000000  0.00000000       0.008
   0.25000000  0.00000000  0.00000000       0.008
   0.37500000  0.00000000  0.00000000       0.008
   0.50000000  0.00000000  0.00000000       0.004
   0.12500000  0.12500000  0.00000000       0.008
   0.25000000  0.12500000  0.00000000       0.016
   0.37500000  0.12500000  0.00000000       0.016
   0.50000000  0.12500000  0.00000000       0.008
   0.25000000  0.25000000  0.00000000       0.008
   0.37500000  0.25000000  0.00000000       0.016
   0.50000000  0.25000000  0.00000000       0.008
   0.37500000  0.37500000  0.00000000       0.008
   0.50000000  0.37500000  0.00000000       0.008
   0.50000000  0.50000000  0.00000000       0.002
  -0.00000000  0.00000000  0.12500000       0.004
   0.12500000 -0.00000000  0.12500000       0.016
   0.25000000  0.00000000  0.12500000       0.016
   0.37500000  0.00000000  0.12500000       0.016
   0.50000000  0.00000000  0.12500000       0.008
   0.12500000  0.12500000  0.12500000       0.016
   0.25000000  0.12500000  0.12500000       0.031
   0.37500000  0.12500000  0.12500000       0.031
   0.50000000  0.12500000  0.12500000       0.016
   0.25000000  0.25000000  0.12500000       0.016
   0.37500000  0.25000000  0.12500000       0.031
   0.50000000  0.25000000  0.12500000       0.016
   0.37500000  0.37500000  0.12500000       0.016
   0.50000000  0.37500000  0.12500000       0.016
   0.50000000  0.50000000  0.12500000       0.004
  -0.00000000  0.00000000  0.25000000       0.004
   0.12500000  0.00000000  0.25000000       0.016
   0.25000000 -0.00000000  0.25000000       0.016
   0.37500000  0.00000000  0.25000000       0.016
   0.50000000  0.00000000  0.25000000       0.008
   0.12500000  0.12500000  0.25000000       0.016
   0.25000000  0.12500000  0.25000000       0.031
   0.37500000  0.12500000  0.25000000       0.031
   0.50000000  0.12500000  0.25000000       0.016
   0.25000000  0.25000000  0.25000000       0.016
   0.37500000  0.25000000  0.25000000       0.031
   0.50000000  0.25000000  0.25000000       0.016
   0.37500000  0.37500000  0.25000000       0.016
   0.50000000  0.37500000  0.25000000       0.016
   0.50000000  0.50000000  0.25000000       0.004
   0.00000000  0.00000000  0.37500000       0.004
   0.12500000  0.00000000  0.37500000       0.016
   0.25000000  0.00000000  0.37500000       0.016
   0.37500000  0.00000000  0.37500000       0.016
   0.50000000  0.00000000  0.37500000       0.008
   0.12500000  0.12500000  0.37500000       0.016
   0.25000000  0.12500000  0.37500000       0.031
   0.37500000  0.12500000  0.37500000       0.031
   0.50000000  0.12500000  0.37500000       0.016
   0.25000000  0.25000000  0.37500000       0.016
   0.37500000  0.25000000  0.37500000       0.031
   0.50000000  0.25000000  0.37500000       0.016
   0.37500000  0.37500000  0.37500000       0.016
   0.50000000  0.37500000  0.37500000       0.016
   0.50000000  0.50000000  0.37500000       0.004
  -0.00000000  0.00000000  0.50000000       0.002
   0.12500000  0.00000000  0.50000000       0.008
   0.25000000  0.00000000  0.50000000       0.008
   0.37500000  0.00000000  0.50000000       0.008
   0.50000000 -0.00000000  0.50000000       0.004
   0.12500000  0.12500000  0.50000000       0.008
   0.25000000  0.12500000  0.50000000       0.016
   0.37500000  0.12500000  0.50000000       0.016
   0.50000000  0.12500000  0.50000000       0.008
   0.25000000  0.25000000  0.50000000       0.008
   0.37500000  0.25000000  0.50000000       0.016
   0.50000000  0.25000000  0.50000000       0.008
   0.37500000  0.37500000  0.50000000       0.008
   0.50000000  0.37500000  0.50000000       0.008
   0.50000000  0.50000000  0.50000000       0.002
 
 position of ions in fractional coordinates (direct lattice) 
   0.50000000  0.50000000  0.00000000
   0.00000000  0.00000000  0.50000000
   0.69567868  0.69567868  0.50000000
   0.19567868  0.80432132  0.00000000
   0.80432132  0.19567868  0.00000000
   0.30432132  0.30432132  0.50000000
 
 position of ions in cartesian coordinates  (Angst):
   2.29991866  2.29991866  0.00000000
   0.00000000  0.00000000  1.47960678
   3.20000878  3.20000878  1.47960678
   0.90009012  3.69974721  0.00000000
   3.69974721  0.90009012  0.00000000
   1.39982854  1.39982854  1.47960678
 


--------------------------------------------------------------------------------------------------------


 k-point  1 :   0.0000 0.0000 0.0000  plane waves:    1559
 k-point  2 :   0.1250 0.0000 0.0000  plane waves:    1593
 k-point  3 :   0.2500 0.0000 0.0000  plane waves:    1589
 k-point  4 :   0.3750 0.0000 0.0000  plane waves:    1601
 k-point  5 :   0.5000 0.0000 0.0000  plane waves:    1616
 k-point  6 :   0.1250 0.1250 0.0000  plane waves:    1596
 k-point  7 :   0.2500 0.1250 0.0000  plane waves:    1594
 k-point  8 :   0.3750 0.1250 0.0000  plane waves:    1601
 k-point  9 :   0.5000 0.1250 0.0000  plane waves:    1604
 k-point 10 :   0.2500 0.2500 0.0000  plane waves:    1590
 k-point 11 :   0.3750 0.2500 0.0000  plane waves:    1591
 k-point 12 :   0.5000 0.2500 0.0000  plane waves:    1610
 k-point 13 :   0.3750 0.3750 0.0000  plane waves:    1596
 k-point 14 :   0.5000 0.3750 0.0000  plane waves:    1590
 k-point 15 :   0.5000 0.5000 0.0000  plane waves:    1584
 k-point 16 :  -0.0000 0.0000 0.1250  plane waves:    1603
 k-point 17 :   0.1250-0.0000 0.1250  plane waves:    1586
 k-point 18 :   0.2500 0.0000 0.1250  plane waves:    1592
 k-point 19 :   0.3750 0.0000 0.1250  plane waves:    1598
 k-point 20 :   0.5000 0.0000 0.1250  plane waves:    1604
 k-point 21 :   0.1250 0.1250 0.1250  plane waves:    1587
 k-point 22 :   0.2500 0.1250 0.1250  plane waves:    1594
 k-point 23 :   0.3750 0.1250 0.1250  plane waves:    1597
 k-point 24 :   0.5000 0.1250 0.1250  plane waves:    1592
 k-point 25 :   0.2500 0.2500 0.1250  plane waves:    1597
 k-point 26 :   0.3750 0.2500 0.1250  plane waves:    1591
 k-point 27 :   0.5000 0.2500 0.1250  plane waves:    1598
 k-point 28 :   0.3750 0.3750 0.1250  plane waves:    1587
 k-point 29 :   0.5000 0.3750 0.1250  plane waves:    1592
 k-point 30 :   0.5000 0.5000 0.1250  plane waves:    1584
 k-point 31 :  -0.0000 0.0000 0.2500  plane waves:    1595
 k-point 32 :   0.1250 0.0000 0.2500  plane waves:    1591
 k-point 33 :   0.2500-0.0000 0.2500  plane waves:    1582
 k-point 34 :   0.3750 0.0000 0.2500  plane waves:    1584
 k-point 35 :   0.5000 0.0000 0.2500  plane waves:    1590
 k-point 36 :   0.1250 0.1250 0.2500  plane waves:    1593
 k-point 37 :   0.2500 0.1250 0.2500  plane waves:    1591
 k-point 38 :   0.3750 0.1250 0.2500  plane waves:    1594
 k-point 39 :   0.5000 0.1250 0.2500  plane waves:    1596
 k-point 40 :   0.2500 0.2500 0.2500  plane waves:    1588
 k-point 41 :   0.3750 0.2500 0.2500  plane waves:    1586
 k-point 42 :   0.5000 0.2500 0.2500  plane waves:    1588
 k-point 43 :   0.3750 0.3750 0.2500  plane waves:    1590
 k-point 44 :   0.5000 0.3750 0.2500  plane waves:    1586
 k-point 45 :   0.5000 0.5000 0.2500  plane waves:    1604
 k-point 46 :   0.0000 0.0000 0.3750  plane waves:    1591
 k-point 47 :   0.1250 0.0000 0.3750  plane waves:    1588
 k-point 48 :   0.2500 0.0000 0.3750  plane waves:    1593
 k-point 49 :   0.3750 0.0000 0.3750  plane waves:    1584
 k-point 50 :   0.5000 0.0000 0.3750  plane waves:    1580
 k-point 51 :   0.1250 0.1250 0.3750  plane waves:    1588
 k-point 52 :   0.2500 0.1250 0.3750  plane waves:    1594
 k-point 53 :   0.3750 0.1250 0.3750  plane waves:    1585
 k-point 54 :   0.5000 0.1250 0.3750  plane waves:    1580
 k-point 55 :   0.2500 0.2500 0.3750  plane waves:    1587
 k-point 56 :   0.3750 0.2500 0.3750  plane waves:    1577
 k-point 57 :   0.5000 0.2500 0.3750  plane waves:    1576
 k-point 58 :   0.3750 0.3750 0.3750  plane waves:    1571
 k-point 59 :   0.5000 0.3750 0.3750  plane waves:    1576
 k-point 60 :   0.5000 0.5000 0.3750  plane waves:    1592
 k-point 61 :  -0.0000 0.0000 0.5000  plane waves:    1586
 k-point 62 :   0.1250 0.0000 0.5000  plane waves:    1600
 k-point 63 :   0.2500 0.0000 0.5000  plane waves:    1604
 k-point 64 :   0.3750 0.0000 0.5000  plane waves:    1584
 k-point 65 :   0.5000-0.0000 0.5000  plane waves:    1568
 k-point 66 :   0.1250 0.1250 0.5000  plane waves:    1584
 k-point 67 :   0.2500 0.1250 0.5000  plane waves:    1590
 k-point 68 :   0.3750 0.1250 0.5000  plane waves:    1588
 k-point 69 :   0.5000 0.1250 0.5000  plane waves:    1584
 k-point 70 :   0.2500 0.2500 0.5000  plane waves:    1588
 k-point 71 :   0.3750 0.2500 0.5000  plane waves:    1582
 k-point 72 :   0.5000 0.2500 0.5000  plane waves:    1576
 k-point 73 :   0.3750 0.3750 0.5000  plane waves:    1566
 k-point 74 :   0.5000 0.3750 0.5000  plane waves:    1564
 k-point 75 :   0.5000 0.5000 0.5000  plane waves:    1576

 maximum and minimum number of plane-waves per node :      1616     1559

 maximum number of plane-waves:      1616
 maximum index in each direction: 
   IXMAX=    8   IYMAX=    8   IZMAX=    5
   IXMIN=   -8   IYMIN=   -8   IZMIN=   -5

 NGX is ok and might be reduce to  34
 NGY is ok and might be reduce to  34
 NGZ is ok and might be reduce to  22

 serial   3D FFT for wavefunctions
 parallel 3D FFT for charge:
    minimum data exchange during FFTs selected (reduces bandwidth)


 total amount of memory used by VASP on root node    67597. kBytes
========================================================================

   base      :      30000. kBytes
   nonl-proj :      29532. kBytes
   fftplans  :        480. kBytes
   grid      :       3386. kBytes
   one-center:        129. kBytes
   wavefun   :       4070. kBytes
 
 Broyden mixing: mesh for mixing (old mesh)
   NGX = 17   NGY = 17   NGZ = 11
  (NGX  = 72   NGY  = 72   NGZ  = 48)
  gives a total of   3179 points

 initial charge density was supplied:
 charge density of overlapping atoms calculated
 number of electron      32.0000000 magnetization       6.0000000
 keeping initial charge density in first step


--------------------------------------------------------------------------------------------------------


 Maximum index for augmentation-charges         2320 (set IRDMAX)


--------------------------------------------------------------------------------------------------------


 First call to EWALD:  gamma=   0.446
 Maximum number of real-space cells 2x 2x 4
 Maximum number of reciprocal cells 3x 3x 2

 FEWALD executed in parallel
    FEWALD:  cpu time    0.00: real time    0.00


----------------------------------------- Iteration    1(   1)  ---------------------------------------


    POTLOK:  cpu time    0.02: real time    0.02
    SETDIJ:  cpu time    0.48: real time    0.48
     EDDAV:  cpu time    2.76: real time    2.86
       DOS:  cpu time    0.00: real time    0.00
    --------------------------------------------
      LOOP:  cpu time    3.26: real time    3.36

 eigenvalue-minimisations  :  9600
 total energy-change (2. order) : 0.9830628E+02  (-0.1701222E+04)
 number of electron      32.0000000 magnetization       6.0000000
 augmentation part       32.0000000 magnetization       6.0000000

 Free energy of the ion-electron system (eV)
  ---------------------------------------------------
  alpha Z        PSCENC =       137.40316384
  Ewald energy   TEWEN  =     -1577.85481303
  -1/2 Hartree   DENC   =      -438.95371508
  -exchange  EXHF       =         0.00000000
  -V(xc)+E(xc)   XCENC  =        37.16612462
  PAW double counting   =      1636.44140823    -1562.71594685
  entropy T*S    EENTRO =        -0.00258348
  eigenvalues    EBANDS =       -52.18838484
  atomic energy  EATOM  =      1919.01102819
  ---------------------------------------------------
  free energy    TOTEN  =        98.30628160 eV

  energy without entropy =       98.30886508  energy(sigma->0) =       98.30757334


--------------------------------------------------------------------------------------------------------




----------------------------------------- Iteration    1(   2)  ---------------------------------------


     EDDAV:  cpu time    3.46: real time    3.57
       DOS:  cpu time    0.00: real time    0.00
    --------------------------------------------
      LOOP:  cpu time    3.46: real time    3.60

 eigenvalue-minimisations  : 11680
 total energy-change (2. order) :-0.1638945E+03  (-0.1607495E+03)
 number of electron      32.0000000 magnetization       6.0000000
 augmentation part       32.0000000 magnetization       6.0000000

 Free energy of the ion-electron system (eV)
  ---------------------------------------------------
  alpha Z        PSCENC =       137.40316384
  Ewald energy   TEWEN  =     -1577.85481303
  -1/2 Hartree   DENC   =      -438.95371508
  -exchange  EXHF       =         0.00000000
  -V(xc)+E(xc)   XCENC  =        37.16612462
  PAW double counting   =      1636.44140823    -1562.71594685
  entropy T*S    EENTRO =        -0.00000000
  eigenvalues    EBANDS =      -216.08543537
  atomic energy  EATOM  =      1919.01102819
  ---------------------------------------------------
  free energy    TOTEN  =       -65.58818545 eV

  energy without entropy =      -65.58818545  energy(sigma->0) =      -65.58818545


--------------------------------------------------------------------------------------------------------




----------------------------------------- Iteration    1(   3)  ---------------------------------------


     EDDAV:  cpu time    2.88: real time    2.98
       DOS:  cpu time    0.00: real time    0.00
    --------------------------------------------
      LOOP:  cpu time    2.88: real time    2.99

 eigenvalue-minimisations  :  9952
 total energy-change (2. order) :-0.3175701E+01  (-0.3175701E+01)
 number of electron      32.0000000 magnetization       6.0000000
 augmentation part       32.0000000 magnetization       6.0000000

 Free energy of the ion-electron system (eV)
  ---------------------------------------------------
  alpha Z        PSCENC =       137.40316384
  Ewald energy   TEWEN  =     -1577.85481303
  -1/2 Hartree   DENC   =      -438.95371508
  -exchange  EXHF       =         0.00000000
  -V(xc)+E(xc)   XCENC  =        37.16612462
  PAW double counting   =      1636.44140823    -1562.71594685
  entropy T*S    EENTRO =        -0.00000000
  eigenvalues    EBANDS =      -219.26113661
  atomic energy  EATOM  =      1919.01102819
  ---------------------------------------------------
  free energy    TOTEN  =       -68.76388669 eV

  energy without entropy =      -68.76388669  energy(sigma->0) =      -68.76388669


--------------------------------------------------------------------------------------------------------




----------------------------------------- Iteration    1(   4)  ---------------------------------------


     EDDAV:  cpu time    5.46: real time    5.62
       DOS:  cpu time    0.00: real time    0.00
    --------------------------------------------
      LOOP:  cpu time    5.46: real time    5.63

 eigenvalue-minimisations  : 16832
 total energy-change (2. order) :-0.1607227E-01  (-0.1607227E-01)
 number of electron      32.0000000 magnetization       6.0000000
 augmentation part       32.0000000 magnetization       6.0000000

 Free energy of the ion-electron system (eV)
  ---------------------------------------------------
  alpha Z        PSCENC =       137.40316384
  Ewald energy   TEWEN  =     -1577.85481303
  -1/2 Hartree   DENC   =      -438.95371508
  -exchange  EXHF       =         0.00000000
  -V(xc)+E(xc)   XCENC  =        37.16612462
  PAW double counting   =      1636.44140823    -1562.71594685
  entropy T*S    EENTRO =        -0.00000000
  eigenvalues    EBANDS =      -219.27720888
  atomic energy  EATOM  =      1919.01102819
  ---------------------------------------------------
  free energy    TOTEN  =       -68.77995896 eV

  energy without entropy =      -68.77995896  energy(sigma->0) =      -68.77995896


--------------------------------------------------------------------------------------------------------




----------------------------------------- Iteration    1(   5)  ---------------------------------------


     EDDAV:  cpu time    2.93: real time    3.03
       DOS:  cpu time    0.00: real time    0.00
    CHARGE:  cpu time    0.13: real time    0.13
    MIXING:  cpu time    0.00: real time    0.00
    --------------------------------------------
      LOOP:  cpu time    3.07: real time    3.17

 eigenvalue-minimisations  : 10048
 total energy-change (2. order) :-0.1478803E-05  (-0.1478803E-05)
 number of electron      32.0000018 magnetization      -0.2501987
 augmentation part        3.9338070 magnetization      -0.2199971

 Broyden mixing:
  rms(total) = 0.44347E+01    rms(broyden)= 0.44345E+01
  rms(prec ) = 0.65559E+01
  weight for this iteration     100.00

 Free energy of the ion-electron system (eV)
  ---------------------------------------------------
  alpha Z        PSCENC =       137.40316384
  Ewald energy   TEWEN  =     -1577.85481303
  -1/2 Hartree   DENC   =      -438.95371508
  -exchange  EXHF       =         0.00000000
  -V(xc)+E(xc)   XCENC  =        37.16612462
  PAW double counting   =      1636.44140823    -1562.71594685
  entropy T*S    EENTRO =        -0.00000000
  eigenvalues    EBANDS =      -219.27721036
  atomic energy  EATOM  =      1919.01102819
  ---------------------------------------------------
  free energy    TOTEN  =       -68.77996044 eV

  energy without entropy =      -68.77996044  energy(sigma->0) =      -68.77996044


--------------------------------------------------------------------------------------------------------




----------------------------------------- Iteration    1(   6)  ---------------------------------------


    POTLOK:  cpu time    0.02: real time    0.02
    SETDIJ:  cpu time    0.47: real time    0.48
     EDDAV:  cpu time    2.95: real time    3.05
       DOS:  cpu time    0.00: real time    0.00
    CHARGE:  cpu time    0.13: real time    0.13
    MIXING:  cpu time    0.00: real time    0.00
    --------------------------------------------
      LOOP:  cpu time    3.58: real time    3.68

 eigenvalue-minimisations  : 10208
 total energy-change (2. order) : 0.1447501E+02  (-0.1507099E+02)
 number of electron      32.0000010 magnetization      -0.0390152
 augmentation part        4.5978148 magnetization      -0.0214447

 Broyden mixing:
  rms(total) = 0.15144E+01    rms(broyden)= 0.15137E+01
  rms(prec ) = 0.22887E+01
  weight for this iteration     100.00

 eigenvalues of (default mixing * dielectric matrix)
  average eigenvalue GAMMA=   0.9178
  0.9178

 Free energy of the ion-electron system (eV)
  ---------------------------------------------------
  alpha Z        PSCENC =       137.40316384
  Ewald energy   TEWEN  =     -1577.85481303
  -1/2 Hartree   DENC   =      -525.00030703
  -exchange  EXHF       =         0.00000000
  -V(xc)+E(xc)   XCENC  =        44.18487414
  PAW double counting   =      2213.87992508    -2140.50685812
  entropy T*S    EENTRO =        -0.00000000
  eigenvalues    EBANDS =      -125.42196146
  atomic energy  EATOM  =      1919.01102819
  ---------------------------------------------------
  free energy    TOTEN  =       -54.30494838 eV

  energy without entropy =      -54.30494838  energy(sigma->0) =      -54.30494838


--------------------------------------------------------------------------------------------------------




----------------------------------------- Iteration    1(   7)  ---------------------------------------


    POTLOK:  cpu time    0.02: real time    0.02
    SETDIJ:  cpu time    0.48: real time    0.48
     EDDAV:  cpu time    2.82: real time    2.92
       DOS:  cpu time    0.00: real time    0.00
    CHARGE:  cpu time    0.13: real time    0.13
    MIXING:  cpu time    0.00: real time    0.00
    --------------------------------------------
      LOOP:  cpu time    3.45: real time    3.55

 eigenvalue-minimisations  :  9856
 total energy-change (2. order) : 0.9137780E+00  (-0.2720787E+01)
 number of electron      32.0000014 magnetization       0.1016211
 augmentation part        4.0821124 magnetization       0.1061050

 Broyden mixing:
  rms(total) = 0.13113E+01    rms(broyden)= 0.13113E+01
  rms(prec ) = 0.16915E+01
  weight for this iteration     100.00

 eigenvalues of (default mixing * dielectric matrix)
  average eigenvalue GAMMA=   1.1849
  1.7126  0.6571

 Free energy of the ion-electron system (eV)
  ---------------------------------------------------
  alpha Z        PSCENC =       137.40316384
  Ewald energy   TEWEN  =     -1577.85481303
  -1/2 Hartree   DENC   =      -495.02637694
  -exchange  EXHF       =         0.00000000
  -V(xc)+E(xc)   XCENC  =        41.73246251
  PAW double counting   =      2417.97933241    -2344.98517256
  entropy T*S    EENTRO =        -0.00000000
  eigenvalues    EBANDS =      -151.65079482
  atomic energy  EATOM  =      1919.01102819
  ---------------------------------------------------
  free energy    TOTEN  =       -53.39117038 eV

  energy without entropy =      -53.39117038  energy(sigma->0) =      -53.39117038


--------------------------------------------------------------------------------------------------------




----------------------------------------- Iteration    1(   8)  ---------------------------------------


    POTLOK:  cpu time    0.02: real time    0.02
    SETDIJ:  cpu time    0.47: real time    0.47
     EDDAV:  cpu time    3.63: real time    3.75
       DOS:  cpu time    0.00: real time    0.00
    CHARGE:  cpu time    0.13: real time    0.13
    MIXING:  cpu time    0.00: real time    0.00
    --------------------------------------------
      LOOP:  cpu time    4.25: real time    4.38

 eigenvalue-minimisations  : 12000
 total energy-change (2. order) : 0.1732852E+00  (-0.1466613E+01)
 number of electron      32.0000012 magnetization       0.0122350
 augmentation part        4.6937077 magnetization       0.0074261

 Broyden mixing:
  rms(total) = 0.64565E+00    rms(broyden)= 0.64558E+00
  rms(prec ) = 0.12396E+01
  weight for this iteration     100.00

 eigenvalues of (default mixing * dielectric matrix)
  average eigenvalue GAMMA=   1.1550
  2.0631  0.8795  0.5225

 Free energy of the ion-electron system (eV)
  ---------------------------------------------------
  alpha Z        PSCENC =       137.40316384
  Ewald energy   TEWEN  =     -1577.85481303
  -1/2 Hartree   DENC   =      -505.51360408
  -exchange  EXHF       =         0.00000000
  -V(xc)+E(xc)   XCENC  =        43.30847552
  PAW double counting   =      3035.68846491    -2962.61426712
  entropy T*S    EENTRO =        -0.00000000
  eigenvalues    EBANDS =      -142.64633343
  atomic energy  EATOM  =      1919.01102819
  ---------------------------------------------------
  free energy    TOTEN  =       -53.21788520 eV

  energy without entropy =      -53.21788520  energy(sigma->0) =      -53.21788520


--------------------------------------------------------------------------------------------------------




----------------------------------------- Iteration    1(   9)  ---------------------------------------


    POTLOK:  cpu time    0.02: real time    0.02
    SETDIJ:  cpu time    0.48: real time    0.48
     EDDAV:  cpu time    2.98: real time    3.09
       DOS:  cpu time    0.00: real time    0.00
    CHARGE:  cpu time    0.13: real time    0.13
    MIXING:  cpu time    0.00: real time    0.00
    --------------------------------------------
      LOOP:  cpu time    3.61: real time    3.72

 eigenvalue-minimisations  : 10240
 total energy-change (2. order) : 0.4427681E+00  (-0.4055213E+00)
 number of electron      32.0000013 magnetization       0.0042383
 augmentation part        4.3915640 magnetization      -0.0032169

 Broyden mixing:
  rms(total) = 0.72548E-01    rms(broyden)= 0.72367E-01
  rms(prec ) = 0.89417E-01
  weight for this iteration     100.00

 eigenvalues of (default mixing * dielectric matrix)
  average eigenvalue GAMMA=   1.0513
  2.1413  0.5338  0.7991  0.7309

 Free energy of the ion-electron system (eV)
  ---------------------------------------------------
  alpha Z        PSCENC =       137.40316384
  Ewald energy   TEWEN  =     -1577.85481303
  -1/2 Hartree   DENC   =      -498.81388213
  -exchange  EXHF       =         0.00000000
  -V(xc)+E(xc)   XCENC  =        42.61829452
  PAW double counting   =      3028.11046893    -2955.38922311
  entropy T*S    EENTRO =        -0.00000000
  eigenvalues    EBANDS =      -147.86015427
  atomic energy  EATOM  =      1919.01102819
  ---------------------------------------------------
  free energy    TOTEN  =       -52.77511706 eV

  energy without entropy =      -52.77511706  energy(sigma->0) =      -52.77511706


--------------------------------------------------------------------------------------------------------




----------------------------------------- Iteration    1(  10)  ---------------------------------------


    POTLOK:  cpu time    0.02: real time    0.02
    SETDIJ:  cpu time    0.47: real time    0.47
     EDDAV:  cpu time    3.49: real time    3.61
       DOS:  cpu time    0.00: real time    0.00
    CHARGE:  cpu time    0.13: real time    0.13
    MIXING:  cpu time    0.00: real time    0.00
    --------------------------------------------
      LOOP:  cpu time    4.11: real time    4.24

 eigenvalue-minimisations  : 11520
 total energy-change (2. order) :-0.3410809E-02  (-0.3970298E-02)
 number of electron      32.0000013 magnetization      -0.0005895
 augmentation part        4.3934687 magnetization      -0.0032586

 Broyden mixing:
  rms(total) = 0.38576E-01    rms(broyden)= 0.38556E-01
  rms(prec ) = 0.54862E-01
  weight for this iteration     100.00

 eigenvalues of (default mixing * dielectric matrix)
  average eigenvalue GAMMA=   1.0110
  2.0824  0.8947  0.8947  0.5122  0.6711

 Free energy of the ion-electron system (eV)
  ---------------------------------------------------
  alpha Z        PSCENC =       137.40316384
  Ewald energy   TEWEN  =     -1577.85481303
  -1/2 Hartree   DENC   =      -499.50956321
  -exchange  EXHF       =         0.00000000
  -V(xc)+E(xc)   XCENC  =        42.66467886
  PAW double counting   =      3036.29225779    -2963.64133289
  entropy T*S    EENTRO =        -0.00000000
  eigenvalues    EBANDS =      -147.14394742
  atomic energy  EATOM  =      1919.01102819
  ---------------------------------------------------
  free energy    TOTEN  =       -52.77852787 eV

  energy without entropy =      -52.77852787  energy(sigma->0) =      -52.77852787


--------------------------------------------------------------------------------------------------------




----------------------------------------- Iteration    1(  11)  ---------------------------------------


    POTLOK:  cpu time    0.02: real time    0.02
    SETDIJ:  cpu time    0.48: real time    0.48
     EDDAV:  cpu time    4.80: real time    4.95
       DOS:  cpu time    0.00: real time    0.00
    CHARGE:  cpu time    0.13: real time    0.13
    MIXING:  cpu time    0.00: real time    0.00
    --------------------------------------------
      LOOP:  cpu time    5.42: real time    5.58

 eigenvalue-minimisations  : 15200
 total energy-change (2. order) : 0.1139560E-02  (-0.7616170E-03)
 number of electron      32.0000013 magnetization      -0.0009390
 augmentation part        4.3834554 magnetization       0.0011400

 Broyden mixing:
  rms(total) = 0.19822E-01    rms(broyden)= 0.19821E-01
  rms(prec ) = 0.24896E-01
  weight for this iteration     100.00

 eigenvalues of (default mixing * dielectric matrix)
  average eigenvalue GAMMA=   1.1433
  2.1327  1.9300  0.8291  0.8291  0.5136  0.6254

 Free energy of the ion-electron system (eV)
  ---------------------------------------------------
  alpha Z        PSCENC =       137.40316384
  Ewald energy   TEWEN  =     -1577.85481303
  -1/2 Hartree   DENC   =      -500.52360395
  -exchange  EXHF       =         0.00000000
  -V(xc)+E(xc)   XCENC  =        42.72994004
  PAW double counting   =      3041.69438794    -2969.14594955
  entropy T*S    EENTRO =        -0.00000000
  eigenvalues    EBANDS =      -146.09154179
  atomic energy  EATOM  =      1919.01102819
  ---------------------------------------------------
  free energy    TOTEN  =       -52.77738831 eV

  energy without entropy =      -52.77738831  energy(sigma->0) =      -52.77738831


--------------------------------------------------------------------------------------------------------




----------------------------------------- Iteration    1(  12)  ---------------------------------------


    POTLOK:  cpu time    0.02: real time    0.02
    SETDIJ:  cpu time    0.47: real time    0.47
     EDDAV:  cpu time    3.30: real time    3.41
       DOS:  cpu time    0.00: real time    0.00
    CHARGE:  cpu time    0.13: real time    0.13
    MIXING:  cpu time    0.00: real time    0.00
    --------------------------------------------
      LOOP:  cpu time    3.92: real time    4.06

 eigenvalue-minimisations  : 11104
 total energy-change (2. order) :-0.2027870E-03  (-0.6203966E-04)
 number of electron      32.0000013 magnetization      -0.0003056
 augmentation part        4.3817039 magnetization       0.0007112

 Broyden mixing:
  rms(total) = 0.90713E-02    rms(broyden)= 0.90711E-02
  rms(prec ) = 0.12105E-01
  weight for this iteration     100.00

 eigenvalues of (default mixing * dielectric matrix)
  average eigenvalue GAMMA=   1.1897
  2.5485  1.7304  1.0563  1.0563  0.7962  0.5157  0.6244

 Free energy of the ion-electron system (eV)
  ---------------------------------------------------
  alpha Z        PSCENC =       137.40316384
  Ewald energy   TEWEN  =     -1577.85481303
  -1/2 Hartree   DENC   =      -500.91188094
  -exchange  EXHF       =         0.00000000
  -V(xc)+E(xc)   XCENC  =        42.76598974
  PAW double counting   =      3059.20498729    -2986.71513186
  entropy T*S    EENTRO =        -0.00000000
  eigenvalues    EBANDS =      -145.68093434
  atomic energy  EATOM  =      1919.01102819
  ---------------------------------------------------
  free energy    TOTEN  =       -52.77759109 eV

  energy without entropy =      -52.77759109  energy(sigma->0) =      -52.77759109


--------------------------------------------------------------------------------------------------------




----------------------------------------- Iteration    1(  13)  ---------------------------------------


    POTLOK:  cpu time    0.03: real time    0.03
    SETDIJ:  cpu time    0.48: real time    0.48
     EDDAV:  cpu time    4.44: real time    4.59
       DOS:  cpu time    0.00: real time    0.00
    CHARGE:  cpu time    0.13: real time    0.13
    MIXING:  cpu time    0.00: real time    0.00
    --------------------------------------------
      LOOP:  cpu time    5.08: real time    5.34

 eigenvalue-minimisations  : 14112
 total energy-change (2. order) :-0.1746146E-04  (-0.4565244E-04)
 number of electron      32.0000013 magnetization       0.0000732
 augmentation part        4.3814472 magnetization       0.0002190

 Broyden mixing:
  rms(total) = 0.16504E-02    rms(broyden)= 0.16475E-02
  rms(prec ) = 0.25995E-02
  weight for this iteration     100.00

 eigenvalues of (default mixing * dielectric matrix)
  average eigenvalue GAMMA=   1.1769
  2.6464  1.7990  1.1966  0.5152  0.9047  0.9047  0.8113  0.6372

 Free energy of the ion-electron system (eV)
  ---------------------------------------------------
  alpha Z        PSCENC =       137.40316384
  Ewald energy   TEWEN  =     -1577.85481303
  -1/2 Hartree   DENC   =      -500.75507344
  -exchange  EXHF       =         0.00000000
  -V(xc)+E(xc)   XCENC  =        42.75760407
  PAW double counting   =      3063.02240586    -2990.52852844
  entropy T*S    EENTRO =        -0.00000000
  eigenvalues    EBANDS =      -145.83339561
  atomic energy  EATOM  =      1919.01102819
  ---------------------------------------------------
  free energy    TOTEN  =       -52.77760856 eV

  energy without entropy =      -52.77760856  energy(sigma->0) =      -52.77760856


--------------------------------------------------------------------------------------------------------




----------------------------------------- Iteration    1(  14)  ---------------------------------------


    POTLOK:  cpu time    0.02: real time    0.02
    SETDIJ:  cpu time    0.48: real time    0.48
     EDDAV:  cpu time    3.60: real time    3.72
       DOS:  cpu time    0.00: real time    0.00
    --------------------------------------------
      LOOP:  cpu time    4.10: real time    4.23

 eigenvalue-minimisations  : 11904
 total energy-change (2. order) : 0.4550557E-06  (-0.3150825E-05)
 number of electron      32.0000013 magnetization       0.0000732
 augmentation part        4.3814472 magnetization       0.0002190

 Free energy of the ion-electron system (eV)
  ---------------------------------------------------
  alpha Z        PSCENC =       137.40316384
  Ewald energy   TEWEN  =     -1577.85481303
  -1/2 Hartree   DENC   =      -500.77834635
  -exchange  EXHF       =         0.00000000
  -V(xc)+E(xc)   XCENC  =        42.75937272
  PAW double counting   =      3061.84370354    -2989.34521456
  entropy T*S    EENTRO =        -0.00000000
  eigenvalues    EBANDS =      -145.81650246
  atomic energy  EATOM  =      1919.01102819
  ---------------------------------------------------
  free energy    TOTEN  =       -52.77760810 eV

  energy without entropy =      -52.77760810  energy(sigma->0) =      -52.77760810


--------------------------------------------------------------------------------------------------------




 average (electrostatic) potential at core
  the test charge radii are     1.2598  0.7215
  (the norm of the test charge is              1.0000)
       1 -28.0023       2 -28.0023       3 -72.3433       4 -72.3433       5 -72.3433
       6 -72.3433
 
 
 
 E-fermi :   2.1365     XC(G=0): -11.1707     alpha+bet :-10.8529


 spin component 1

 k-point   1 :       0.0000    0.0000    0.0000
  band No.  band energies     occupation 
      1     -16.3524      1.00000
      2     -15.1604      1.00000
      3     -14.5812      1.00000
      4     -14.5812      1.00000
      5      -3.8893      1.00000
      6      -3.4817      1.00000
      7      -3.0287      1.00000
      8      -1.9631      1.00000
      9      -1.9631      1.00000
     10      -0.6737      1.00000
     11      -0.6737      1.00000
     12      -0.0972      1.00000
     13       1.2158      1.00000
     14       1.4766      1.00000
     15       1.4766      1.00000
     16       1.8600      1.00000
     17       3.5561      0.00000
     18       3.8558      0.00000
     19       4.0839      0.00000
     20       4.1621      0.00000
     21       4.1621      0.00000
     22       6.0063      0.00000
     23       6.2249      0.00000
     24       8.2169      0.00000
     25       8.2169      0.00000
     26       9.2371      0.00000
     27       9.7776      0.00000
     28      13.0917      0.00000
     29      13.0917      0.00000
     30      16.4084      0.00000
     31      17.5217      0.00000
     32      18.4030      0.00000

 k-point   2 :       0.1250    0.0000    0.0000
  band No.  band energies     occupation 
      1     -16.3022      1.00000
      2     -15.1713      1.00000
      3     -14.6299      1.00000
      4     -14.5973      1.00000
      5      -3.7850      1.00000
      6      -3.4173      1.00000
      7      -2.9287      1.00000
      8      -1.9565      1.00000
      9      -1.9514      1.00000
     10      -0.7754      1.00000
     11      -0.6983      1.00000
     12      -0.0916      1.00000
     13       1.1055      1.00000
     14       1.1743      1.00000
     15       1.3280      1.00000
     16       1.8119      1.00000
     17       3.6484      0.00000
     18       3.9814      0.00000
     19       4.2050      0.00000
     20       4.2256      0.00000
     21       4.2570      0.00000
     22       6.1132      0.00000
     23       6.1610      0.00000
     24       8.1626      0.00000
     25       8.1761      0.00000
     26       9.1342      0.00000
     27       9.9706      0.00000
     28      13.0695      0.00000
     29      13.2191      0.00000
     30      16.4121      0.00000
     31      17.3006      0.00000
     32      18.3016      0.00000

 k-point   3 :       0.2500    0.0000    0.0000
  band No.  band energies     occupation 
      1     -16.1567      1.00000
      2     -15.2320      1.00000
      3     -14.7294      1.00000
      4     -14.6401      1.00000
      5      -3.5234      1.00000
      6      -3.2493      1.00000
      7      -2.6112      1.00000
      8      -1.9386      1.00000
      9      -1.9247      1.00000
     10      -1.0170      1.00000
     11      -0.8080      1.00000
     12      -0.0570      1.00000
     13       0.4704      1.00000
     14       0.8363      1.00000
     15       1.0822      1.00000
     16       1.6388      1.00000
     17       3.8559      0.00000
     18       4.1856      0.00000
     19       4.3891      0.00000
     20       4.4676      0.00000
     21       4.4945      0.00000
     22       5.9260      0.00000
     23       6.5001      0.00000
     24       8.0320      0.00000
     25       8.0694      0.00000
     26       8.8237      0.00000
     27      10.4925      0.00000
     28      12.9277      0.00000
     29      13.6016      0.00000
     30      16.3870      0.00000
     31      16.8639      0.00000
     32      18.1177      0.00000

 k-point   4 :       0.3750    0.0000    0.0000
  band No.  band energies     occupation 
      1     -15.9337      1.00000
      2     -15.4047      1.00000
      3     -14.7781      1.00000
      4     -14.6986      1.00000
      5      -3.2290      1.00000
      6      -3.0691      1.00000
      7      -2.0543      1.00000
      8      -1.9160      1.00000
      9      -1.9026      1.00000
     10      -1.2442      1.00000
     11      -1.0317      1.00000
     12      -0.3930      1.00000
     13       0.0445      1.00000
     14       0.5193      1.00000
     15       1.0071      1.00000
     16       1.3867      1.00000
     17       4.0724      0.00000
     18       4.2765      0.00000
     19       4.5779      0.00000
     20       4.6490      0.00000
     21       4.8573      0.00000
     22       5.6109      0.00000
     23       7.0695      0.00000
     24       7.9062      0.00000
     25       7.9434      0.00000
     26       8.3331      0.00000
     27      11.1958      0.00000
     28      12.5445      0.00000
     29      14.2187      0.00000
     30      15.8152      0.00000
     31      16.9911      0.00000
     32      17.8658      0.00000

 k-point   5 :       0.5000    0.0000    0.0000
  band No.  band energies     occupation 
      1     -15.6650      1.00000
      2     -15.6650      1.00000
      3     -14.7544      1.00000
      4     -14.7544      1.00000
      5      -3.0402      1.00000
      6      -3.0402      1.00000
      7      -1.9001      1.00000
      8      -1.9001      1.00000
      9      -1.3628      1.00000
     10      -1.3628      1.00000
     11      -1.1669      1.00000
     12      -1.1669      1.00000
     13       0.2395      1.00000
     14       0.2395      1.00000
     15       1.1415      1.00000
     16       1.1415      1.00000
     17       4.2277      0.00000
     18       4.2277      0.00000
     19       4.6905      0.00000
     20       4.6905      0.00000
     21       5.2417      0.00000
     22       5.2417      0.00000
     23       7.7198      0.00000
     24       7.7198      0.00000
     25       7.8702      0.00000
     26       7.8702      0.00000
     27      11.9272      0.00000
     28      11.9272      0.00000
     29      14.9984      0.00000
     30      14.9984      0.00000
     31      17.4493      0.00000
     32      17.4493      0.00000

 k-point   6 :       0.1250    0.1250    0.0000
  band No.  band energies     occupation 
      1     -16.2554      1.00000
      2     -15.1857      1.00000
      3     -14.6767      1.00000
      4     -14.6024      1.00000
      5      -3.7529      1.00000
      6      -3.3032      1.00000
      7      -2.8356      1.00000
      8      -1.9732      1.00000
      9      -1.9237      1.00000
     10      -0.9274      1.00000
     11      -0.6457      1.00000
     12      -0.0816      1.00000
     13       0.9102      1.00000
     14       1.0288      1.00000
[...]
     13       0.0255      1.00000
     14       0.2428      1.00000
     15       0.4991      1.00000
     16       0.7651      1.00000
     17       3.4262      0.00000
     18       3.8694      0.00000
     19       4.5354      0.00000
     20       4.5398      0.00000
     21       4.7235      0.00000
     22       5.1547      0.00000
     23       6.1128      0.00000
     24       6.6899      0.00000
     25       7.5303      0.00000
     26       8.1396      0.00000
     27      13.1720      0.00000
     28      13.8590      0.00000
     29      14.5914      0.00000
     30      15.6922      0.00000
     31      16.4137      0.00000
     32      17.1210      0.00000

 k-point  72 :       0.5000    0.2500    0.5000
  band No.  band energies     occupation 
      1     -15.3332      1.00000
      2     -15.3332      1.00000
      3     -14.9757      1.00000
      4     -14.9757      1.00000
      5      -3.1732      1.00000
      6      -3.1732      1.00000
      7      -2.4425      1.00000
      8      -2.4425      1.00000
      9      -1.7650      1.00000
     10      -1.7650      1.00000
     11      -0.9998      1.00000
     12      -0.9998      1.00000
     13       0.1504      1.00000
     14       0.1504      1.00000
     15       0.7784      1.00000
     16       0.7784      1.00000
     17       3.5577      0.00000
     18       3.5577      0.00000
     19       4.5432      0.00000
     20       4.5432      0.00000
     21       4.9499      0.00000
     22       4.9499      0.00000
     23       6.3600      0.00000
     24       6.3600      0.00000
     25       7.9070      0.00000
     26       7.9070      0.00000
     27      13.3947      0.00000
     28      13.3947      0.00000
     29      15.0636      0.00000
     30      15.0636      0.00000
     31      16.7043      0.00000
     32      16.7043      0.00000

 k-point  73 :       0.3750    0.3750    0.5000
  band No.  band energies     occupation 
      1     -15.3371      1.00000
      2     -15.2289      1.00000
      3     -15.0834      1.00000
      4     -14.9693      1.00000
      5      -3.2092      1.00000
      6      -2.8349      1.00000
      7      -2.7536      1.00000
      8      -2.5350      1.00000
      9      -2.0102      1.00000
     10      -1.5624      1.00000
     11      -1.1281      1.00000
     12      -1.0237      1.00000
     13       0.2497      1.00000
     14       0.3454      1.00000
     15       0.7068      1.00000
     16       0.9021      1.00000
     17       3.5635      0.00000
     18       4.0096      0.00000
     19       4.4987      0.00000
     20       4.5478      0.00000
     21       4.5761      0.00000
     22       4.9616      0.00000
     23       6.3416      0.00000
     24       7.0433      0.00000
     25       7.1733      0.00000
     26       7.8976      0.00000
     27      13.1084      0.00000
     28      13.5931      0.00000
     29      14.5806      0.00000
     30      15.4473      0.00000
     31      16.0774      0.00000
     32      16.6535      0.00000

 k-point  74 :       0.5000    0.3750    0.5000
  band No.  band energies     occupation 
      1     -15.2755      1.00000
      2     -15.2755      1.00000
      3     -15.0335      1.00000
      4     -15.0335      1.00000
      5      -3.0578      1.00000
      6      -3.0578      1.00000
      7      -2.6510      1.00000
      8      -2.6510      1.00000
      9      -1.8163      1.00000
     10      -1.8163      1.00000
     11      -1.0885      1.00000
     12      -1.0885      1.00000
     13       0.3436      1.00000
     14       0.3436      1.00000
     15       0.8877      1.00000
     16       0.8877      1.00000
     17       3.8057      0.00000
     18       3.8057      0.00000
     19       4.5500      0.00000
     20       4.5500      0.00000
     21       4.7016      0.00000
     22       4.7016      0.00000
     23       6.6897      0.00000
     24       6.6897      0.00000
     25       7.5353      0.00000
     26       7.5353      0.00000
     27      13.2512      0.00000
     28      13.2512      0.00000
     29      14.9663      0.00000
     30      14.9663      0.00000
     31      16.2555      0.00000
     32      16.2555      0.00000

 k-point  75 :       0.5000    0.5000    0.5000
  band No.  band energies     occupation 
      1     -15.2412      1.00000
      2     -15.2412      1.00000
      3     -15.0683      1.00000
      4     -15.0683      1.00000
      5      -2.9150      1.00000
      6      -2.9150      1.00000
      7      -2.8393      1.00000
      8      -2.8393      1.00000
      9      -1.8224      1.00000
     10      -1.8224      1.00000
     11      -1.1212      1.00000
     12      -1.1212      1.00000
     13       0.4055      1.00000
     14       0.4055      1.00000
     15       0.9398      1.00000
     16       0.9398      1.00000
     17       3.9638      0.00000
     18       3.9638      0.00000
     19       4.5401      0.00000
     20       4.5401      0.00000
     21       4.5548      0.00000
     22       4.5548      0.00000
     23       7.0395      0.00000
     24       7.0395      0.00000
     25       7.1685      0.00000
     26       7.1685      0.00000
     27      13.1823      0.00000
     28      13.1823      0.00000
     29      14.9825      0.00000
     30      14.9825      0.00000
     31      16.0535      0.00000
     32      16.0535      0.00000


--------------------------------------------------------------------------------------------------------


 soft charge-density along one line, spin component           1
         0         1         2         3         4         5         6         7         8         9
 total charge-density along one line
 
 soft charge-density along one line, spin component           2
         0         1         2         3         4         5         6         7         8         9
 total charge-density along one line
 
 pseudopotential strength for first ion, spin component:           1
 -4.541   0.000  -0.013   0.000  -0.000  -4.713   0.000  -0.015
  0.000  -4.550  -0.000  -0.021  -0.000   0.000  -4.724  -0.000
 -0.013  -0.000  -4.554   0.000  -0.000  -0.015  -0.000  -4.729
  0.000  -0.021   0.000  -4.550   0.000   0.000  -0.023   0.000
 -0.000  -0.000  -0.000   0.000  -4.516  -0.000  -0.000  -0.000
 -4.713   0.000  -0.015   0.000  -0.000  -4.794   0.000  -0.017
  0.000  -4.724  -0.000  -0.023  -0.000   0.000  -4.807  -0.000
 -0.015  -0.000  -4.729   0.000  -0.000  -0.017  -0.000  -4.813
  0.000  -0.023   0.000  -4.724   0.000   0.000  -0.026   0.000
 -0.000  -0.000  -0.000   0.000  -4.685  -0.000  -0.000  -0.000
  0.000  -0.000   0.003  -0.000   0.000   0.000  -0.000   0.003
  0.000   0.000  -0.004   0.000  -0.000   0.000   0.000  -0.003
 -0.000  -0.000   0.000   0.000   0.000  -0.000  -0.000   0.000
  0.000   0.000  -0.000  -0.000  -0.000   0.000  -0.000  -0.000
  0.000   0.000   0.000  -0.000  -0.000   0.000   0.000   0.000
 pseudopotential strength for first ion, spin component:           2
 -4.541   0.000  -0.013   0.000  -0.000  -4.713   0.000  -0.015
  0.000  -4.550  -0.000  -0.021  -0.000   0.000  -4.724  -0.000
 -0.013  -0.000  -4.554   0.000  -0.000  -0.015  -0.000  -4.729
  0.000  -0.021   0.000  -4.550   0.000   0.000  -0.023   0.000
 -0.000  -0.000  -0.000   0.000  -4.516  -0.000  -0.000  -0.000
 -4.713   0.000  -0.015   0.000  -0.000  -4.794   0.000  -0.017
  0.000  -4.724  -0.000  -0.023  -0.000   0.000  -4.807  -0.000
 -0.015  -0.000  -4.729   0.000  -0.000  -0.017  -0.000  -4.813
  0.000  -0.023   0.000  -4.724   0.000   0.000  -0.026   0.000
 -0.000  -0.000  -0.000   0.000  -4.685  -0.000  -0.000  -0.000
  0.000  -0.000   0.003  -0.000   0.000   0.000  -0.000   0.003
  0.000   0.000  -0.004   0.000  -0.000   0.000   0.000  -0.003
 -0.000  -0.000   0.000   0.000   0.000  -0.000  -0.000   0.000
  0.000   0.000  -0.000  -0.000  -0.000   0.000   0.000  -0.000
  0.000   0.000   0.000  -0.000  -0.000   0.000   0.000   0.000
 total augmentation occupancy for first ion, spin component:           1
  9.106   0.000   4.277   0.000   0.000  -6.229  -0.000  -3.082  -0.000  -0.000  -0.014  -0.005   0.000   0.000   0.000
  0.000   8.389   0.000   5.040  -0.000  -0.000  -5.690  -0.000  -3.635   0.000  -0.000  -0.000   0.000   0.000   0.000
  4.277   0.000   6.952   0.000   0.000  -3.087  -0.000  -4.782  -0.000  -0.000   0.704   0.061   0.000   0.000   0.000
  0.000   5.040   0.000   8.389   0.000  -0.000  -3.635  -0.000  -5.690  -0.000  -0.000  -0.000   0.000   0.000   0.000
  0.000  -0.000   0.000   0.000   2.798  -0.000   0.000  -0.000  -0.000  -1.630  -0.000  -0.000   0.000   0.000   0.000
 -6.229  -0.000  -3.087  -0.000  -0.000   4.329   0.000   2.247   0.000   0.000   0.024   0.002   0.000   0.000   0.000
 -0.000  -5.690  -0.000  -3.635   0.000   0.000   3.926   0.000   2.647  -0.000   0.000   0.000   0.000   0.000   0.000
 -3.082  -0.000  -4.782  -0.000  -0.000   2.247   0.000   3.324   0.000   0.000  -0.539  -0.047   0.000   0.000   0.000
 -0.000  -3.635  -0.000  -5.690  -0.000   0.000   2.647   0.000   3.926   0.000   0.000   0.000   0.000   0.000   0.000
 -0.000   0.000  -0.000  -0.000  -1.630   0.000  -0.000   0.000   0.000   0.962   0.000   0.000   0.000   0.000   0.000
 -0.014  -0.000   0.704  -0.000  -0.000   0.024   0.000  -0.539   0.000   0.000   2.149   0.132   0.000   0.000   0.000
 -0.005  -0.000   0.061  -0.000  -0.000   0.002   0.000  -0.047   0.000   0.000   0.132   0.013   0.000   0.000   0.000
  0.000   0.000   0.000   0.000   0.000   0.000   0.000   0.000   0.000   0.000   0.000   0.000   0.539   0.000   0.022
  0.000   0.000   0.000   0.000   0.000   0.000   0.000   0.000   0.000   0.000   0.000   0.000   0.000   0.626   0.000
  0.000   0.000   0.000   0.000   0.000   0.000   0.000   0.000   0.000   0.000   0.000   0.000   0.022   0.000   0.539
 total augmentation occupancy for first ion, spin component:           2
 -0.000  -0.000  -0.000  -0.000  -0.000   0.000   0.000   0.000   0.000   0.000   0.000   0.000   0.000   0.000   0.000
 -0.000   0.000  -0.000   0.000   0.000   0.000  -0.000   0.000  -0.000  -0.000  -0.000   0.000   0.000   0.000   0.000
 -0.000  -0.000   0.000  -0.000  -0.000   0.000   0.000  -0.000  -0.000   0.000   0.000   0.000   0.000   0.000   0.000
 -0.000   0.000  -0.000   0.000  -0.000   0.000  -0.000   0.000  -0.000   0.000  -0.000   0.000   0.000   0.000   0.000
 -0.000   0.000  -0.000  -0.000  -0.000   0.000  -0.000   0.000   0.000   0.000   0.000   0.000   0.000   0.000   0.000
  0.000   0.000   0.000   0.000   0.000  -0.000  -0.000  -0.000  -0.000   0.000  -0.000  -0.000   0.000   0.000   0.000
  0.000  -0.000   0.000  -0.000  -0.000  -0.000   0.000  -0.000   0.000   0.000  -0.000  -0.000   0.000   0.000   0.000
  0.000   0.000  -0.000   0.000   0.000  -0.000  -0.000   0.000  -0.000  -0.000  -0.000  -0.000   0.000   0.000   0.000
  0.000  -0.000  -0.000  -0.000   0.000  -0.000   0.000  -0.000   0.000  -0.000  -0.000  -0.000   0.000   0.000   0.000
  0.000  -0.000   0.000   0.000   0.000   0.000   0.000  -0.000  -0.000  -0.000   0.000  -0.000   0.000   0.000   0.000
  0.000  -0.000   0.000  -0.000   0.000  -0.000  -0.000  -0.000  -0.000   0.000   0.000   0.000   0.000   0.000   0.000
  0.000   0.000   0.000   0.000   0.000  -0.000  -0.000  -0.000  -0.000  -0.000   0.000   0.000   0.000   0.000   0.000
  0.000   0.000   0.000   0.000   0.000   0.000   0.000   0.000   0.000   0.000   0.000   0.000  -0.000  -0.000  -0.000
  0.000   0.000   0.000   0.000   0.000   0.000   0.000   0.000   0.000   0.000   0.000   0.000  -0.000   0.000  -0.000
  0.000   0.000   0.000   0.000   0.000   0.000   0.000   0.000   0.000   0.000   0.000   0.000  -0.000  -0.000  -0.000


------------------------ aborting loop because EDIFF is reached ----------------------------------------


 


 total charge     
 
# of ion     s       p       d       tot
----------------------------------------
  1        0.531   1.051   2.516   4.098
  2        0.540   1.022   2.544   4.106
  3        1.578   3.454   0.000   5.032
  4        1.577   3.471   0.000   5.047
  5        1.577   3.471   0.000   5.047
  6        1.578   3.454   0.000   5.032
------------------------------------------------
tot        7.380  15.923   5.060  28.363
 


 magnetization (x)
 
# of ion     s       p       d       tot
----------------------------------------
  1        0.000  -0.000  -0.000  -0.000
  2       -0.000   0.000  -0.000  -0.000
  3       -0.000  -0.000   0.000  -0.000
  4       -0.000  -0.000   0.000  -0.000
  5       -0.000  -0.000   0.000  -0.000
  6       -0.000  -0.000   0.000  -0.000
------------------------------------------------
tot       -0.000  -0.000  -0.000  -0.000
 
    CHARGE:  cpu time    0.13: real time    0.13
    FORLOC:  cpu time    0.00: real time    0.00
    FORNL :  cpu time    0.15: real time    0.15
    STRESS:  cpu time    0.74: real time    0.74
    FORCOR:  cpu time    0.02: real time    0.02
    FORHAR:  cpu time    0.00: real time    0.00
    MIXING:  cpu time    0.00: real time    0.00

  FORCE on cell =-STRESS in cart. coord.  units (eV):
  Direction    XX          YY          ZZ          XY          YZ          ZX
  --------------------------------------------------------------------------------------
  Alpha Z   133.45665   133.45665   133.45665
  Ewald    -559.23472  -559.23472  -443.13592    -0.00000     0.00000     0.00000
  Hartree   162.35680   162.35680   182.91417    -0.00000    -0.00000    -0.00000
  E(xc)    -152.36246  -152.36246  -153.32308     0.00000    -0.00000     0.00000
  Local    -108.32914  -108.32914  -234.00039     0.00000     0.00000    -0.00000
  n-local   -94.05384   -95.09681   -91.87166    -0.01993     0.12679    -0.07969
  augment    37.07163    37.07163    36.38587     0.00000    -0.00000     0.00000
  Kinetic   581.95789   581.29827   569.57831    -1.07167    -0.72737    -1.24442
  Fock        0.00000     0.00000     0.00000     0.00000     0.00000     0.00000
  -------------------------------------------------------------------------------------
  Total       0.01152     0.01152     0.00394    -0.00000     0.00000     0.00000
  in kB       0.28621     0.28621     0.09798    -0.00000     0.00000     0.00000
  external pressure =        0.22 kB  Pullay stress =        0.00 kB


 VOLUME and BASIS-vectors are now :
 -----------------------------------------------------------------------------
  energy-cutoff  :      500.00
  volume of cell :       64.46
      direct lattice vectors                 reciprocal lattice vectors
     4.659657842  0.000000000  0.000000000     0.214608032 -0.000000000 -0.000000000
     0.000000000  4.659657842  0.000000000    -0.000000000  0.214608032 -0.000000000
     0.000000000  0.000000000  2.968996752    -0.000000000 -0.000000000  0.336814110

  length of vectors
     4.659657842  4.659657842  2.968996752     0.214608032  0.214608032  0.336814110


 FORCES acting on ions
    electron-ion (+dipol)            ewald-force                    non-local-force                 convergence-correction
 -----------------------------------------------------------------------------------------------
   0.157E-12 0.173E-12 0.182E-13   0.213E-13 0.000E+00 0.382E-14   0.152E-24 0.199E-26 0.000E+00   0.131E-13 0.300E-14 -.390E-13
   0.735E-14 0.128E-13 0.152E-13   0.711E-14 -.711E-14 0.393E-14   0.401E-25 -.211E-26 0.000E+00   -.967E-14 0.141E-15 0.303E-13
   -.172E+02 -.172E+02 0.648E-06   0.205E+02 0.205E+02 -.333E-14   -.325E+01 -.325E+01 -.430E-15   -.404E-02 -.404E-02 0.225E-12
   -.172E+02 0.172E+02 0.217E-11   0.205E+02 -.205E+02 -.138E-14   -.325E+01 0.325E+01 0.000E+00   -.404E-02 0.404E-02 -.214E-12
   0.172E+02 -.172E+02 -.507E-11   -.205E+02 0.205E+02 -.125E-14   0.325E+01 -.325E+01 0.000E+00   0.404E-02 -.404E-02 0.112E-13
   0.172E+02 0.172E+02 -.648E-06   -.205E+02 -.205E+02 0.832E-15   0.325E+01 0.325E+01 0.430E-15   0.404E-02 0.404E-02 0.109E-12
 -----------------------------------------------------------------------------------------------
   0.192E-11 0.500E-11 -.398E-11   0.355E-14 0.107E-13 0.262E-14   -.444E-15 0.000E+00 0.000E+00   0.128E-13 0.655E-13 0.122E-12
 
 
 POSITION                                       TOTAL-FORCE (eV/Angst)
 -----------------------------------------------------------------------------------
      2.32983      2.32983      0.00000         0.000000      0.000000     -0.000000
      0.00000      0.00000      1.48450         0.000000     -0.000000     -0.000000
      3.23993      3.23993      1.48450         0.005253      0.005253      0.000000
      0.91010      3.74956      0.00000         0.005253     -0.005253     -0.000000
      3.74956      0.91010      0.00000        -0.005253      0.005253      0.000000
      1.41973      1.41973      1.48450        -0.005253     -0.005253     -0.000000
 -----------------------------------------------------------------------------------
    total drift:                                0.000000      0.000000     -0.000000


--------------------------------------------------------------------------------------------------------



  FREE ENERGIE OF THE ION-ELECTRON SYSTEM (eV)
  ---------------------------------------------------
  free  energy   TOTEN  =       -52.81764693 eV

  energy  without entropy=      -52.81764693  energy(sigma->0) =      -52.81764693
 
 d Force = 0.2537202E-04[-0.383E-04, 0.890E-04]  d Energy = 0.2589838E-03-0.234E-03
 d Force =-0.1475370E+00[-0.149E+00,-0.146E+00]  d Ewald  =-0.7095465E+00 0.562E+00


--------------------------------------------------------------------------------------------------------


    POTLOK:  cpu time    0.49: real time    0.49


--------------------------------------------------------------------------------------------------------




--------------------------------------------------------------------------------------------------------


  
 reached required accuracy - stopping structural energy minimisation
 writing wavefunctions
     LOOP+:  cpu time   23.99: real time   25.03
    4ORBIT:  cpu time    0.00: real time    0.00
 


 total charge     
 
# of ion     s       p       d       tot
----------------------------------------
  1        0.531   1.051   2.516   4.098
  2        0.540   1.022   2.544   4.106
  3        1.578   3.454   0.000   5.032
  4        1.577   3.471   0.000   5.047
  5        1.577   3.471   0.000   5.047
  6        1.578   3.454   0.000   5.032
------------------------------------------------
tot        7.380  15.923   5.060  28.363
 


 magnetization (x)
 
# of ion     s       p       d       tot
----------------------------------------
  1        0.000  -0.000  -0.000  -0.000
  2       -0.000   0.000  -0.000  -0.000
  3       -0.000  -0.000   0.000  -0.000
  4       -0.000  -0.000   0.000  -0.000
  5       -0.000  -0.000   0.000  -0.000
  6       -0.000  -0.000   0.000  -0.000
------------------------------------------------
tot       -0.000  -0.000  -0.000  -0.000
 

 total amount of memory used by VASP on root node    67597. kBytes
========================================================================

   base      :      30000. kBytes
   nonl-proj :      29532. kBytes
   fftplans  :        480. kBytes
   grid      :       3386. kBytes
   one-center:        129. kBytes
   wavefun   :       4070. kBytes
 
  
  
 General timing and accounting informations for this job:
 ========================================================
  
                  Total CPU time used (sec):      197.420
                            User time (sec):      188.574
                          System time (sec):        8.846
                         Elapsed time (sec):      204.430
  
                   Maximum memory used (kb):       90412.
                   Average memory used (kb):           0.
  
                          Minor page faults:        71390
                          Major page faults:            1
                 Voluntary context switches:         6206
