Rutile (band)                           
           1
     4.659658    0.000000    0.000000
     0.000000    4.659658    0.000000
     0.000000    0.000000    2.968997
   Ti   O 
   2   4
Rutile (band)                           
           1
     4.659658    0.000000    0.000000
     0.000000    4.659658    0.000000
     0.000000    0.000000    2.968997
   Ti   O 
   2   4
Direct configuration=     1
   0.50000000  0.50000000  0.00000000
   0.00000000  0.00000000  0.50000000
   0.69531506  0.69531506  0.50000000
   0.19531506  0.80468494  0.00000000
   0.80468494  0.19531506  0.00000000
   0.30468494  0.30468494  0.50000000
