   8   8   1   0
  0.2253304E+02  0.5648979E-09  0.5648979E-09  0.5648979E-09  0.5000000E-15
  1.000000000000000E-004
  CAR 
 NaCl (band)                             
     27.93799110    -12.56285136  301     -0.26072047      1.00000000
    -12.563  0.2963E+02  0.2963E+02  0.4000E+01  0.4000E+01
    -12.428  0.4950E-12  0.4956E-12  0.4000E+01  0.4000E+01
    -12.293  0.0000E+00  0.0000E+00  0.4000E+01  0.4000E+01
    -12.158  0.0000E+00  0.0000E+00  0.4000E+01  0.4000E+01
    -12.023  0.0000E+00  0.0000E+00  0.4000E+01  0.4000E+01
    -11.888  0.0000E+00  0.0000E+00  0.4000E+01  0.4000E+01
    -11.753  0.0000E+00  0.0000E+00  0.4000E+01  0.4000E+01
    -11.618  0.0000E+00  0.0000E+00  0.4000E+01  0.4000E+01
    -11.483  0.0000E+00  0.0000E+00  0.4000E+01  0.4000E+01
    -11.348  0.0000E+00  0.0000E+00  0.4000E+01  0.4000E+01
    -11.213  0.0000E+00  0.0000E+00  0.4000E+01  0.4000E+01
    -11.078  0.0000E+00  0.0000E+00  0.4000E+01  0.4000E+01
    -10.943  0.0000E+00  0.0000E+00  0.4000E+01  0.4000E+01
    -10.808  0.0000E+00  0.0000E+00  0.4000E+01  0.4000E+01
    -10.673  0.0000E+00  0.0000E+00  0.4000E+01  0.4000E+01
    -10.538  0.0000E+00  0.0000E+00  0.4000E+01  0.4000E+01
    -10.403  0.0000E+00  0.0000E+00  0.4000E+01  0.4000E+01
    -10.268  0.0000E+00  0.0000E+00  0.4000E+01  0.4000E+01
    -10.133  0.0000E+00  0.0000E+00  0.4000E+01  0.4000E+01
     -9.998  0.0000E+00  0.0000E+00  0.4000E+01  0.4000E+01
     -9.863  0.0000E+00  0.0000E+00  0.4000E+01  0.4000E+01
     -9.728  0.0000E+00  0.0000E+00  0.4000E+01  0.4000E+01
     -9.593  0.0000E+00  0.0000E+00  0.4000E+01  0.4000E+01
     -9.458  0.0000E+00  0.0000E+00  0.4000E+01  0.4000E+01
     -9.323  0.0000E+00  0.0000E+00  0.4000E+01  0.4000E+01
     -9.188  0.0000E+00  0.0000E+00  0.4000E+01  0.4000E+01
     -9.053  0.0000E+00  0.0000E+00  0.4000E+01  0.4000E+01
     -8.918  0.0000E+00  0.0000E+00  0.4000E+01  0.4000E+01
     -8.783  0.0000E+00  0.0000E+00  0.4000E+01  0.4000E+01
     -8.648  0.0000E+00  0.0000E+00  0.4000E+01  0.4000E+01
     -8.513  0.0000E+00  0.0000E+00  0.4000E+01  0.4000E+01
     -8.378  0.0000E+00  0.0000E+00  0.4000E+01  0.4000E+01
     -8.243  0.0000E+00  0.0000E+00  0.4000E+01  0.4000E+01
     -8.108  0.0000E+00  0.0000E+00  0.4000E+01  0.4000E+01
     -7.973  0.0000E+00  0.0000E+00  0.4000E+01  0.4000E+01
     -7.838  0.0000E+00  0.0000E+00  0.4000E+01  0.4000E+01
     -7.703  0.0000E+00  0.0000E+00  0.4000E+01  0.4000E+01
     -7.568  0.0000E+00  0.0000E+00  0.4000E+01  0.4000E+01
     -7.433  0.0000E+00  0.0000E+00  0.4000E+01  0.4000E+01
     -7.298  0.0000E+00  0.0000E+00  0.4000E+01  0.4000E+01
     -7.163  0.0000E+00  0.0000E+00  0.4000E+01  0.4000E+01
     -7.028  0.0000E+00  0.0000E+00  0.4000E+01  0.4000E+01
     -6.893  0.0000E+00  0.0000E+00  0.4000E+01  0.4000E+01
     -6.758  0.0000E+00  0.0000E+00  0.4000E+01  0.4000E+01
     -6.623  0.0000E+00  0.0000E+00  0.4000E+01  0.4000E+01
     -6.488  0.0000E+00  0.0000E+00  0.4000E+01  0.4000E+01
     -6.353  0.0000E+00  0.0000E+00  0.4000E+01  0.4000E+01
     -6.218  0.0000E+00  0.0000E+00  0.4000E+01  0.4000E+01
     -6.083  0.0000E+00  0.0000E+00  0.4000E+01  0.4000E+01
     -5.948  0.0000E+00  0.0000E+00  0.4000E+01  0.4000E+01
     -5.813  0.0000E+00  0.0000E+00  0.4000E+01  0.4000E+01
     -5.678  0.0000E+00  0.0000E+00  0.4000E+01  0.4000E+01
     -5.543  0.0000E+00  0.0000E+00  0.4000E+01  0.4000E+01
     -5.408  0.0000E+00  0.0000E+00  0.4000E+01  0.4000E+01
     -5.273  0.0000E+00  0.0000E+00  0.4000E+01  0.4000E+01
     -5.138  0.0000E+00  0.0000E+00  0.4000E+01  0.4000E+01
     -5.003  0.0000E+00  0.0000E+00  0.4000E+01  0.4000E+01
     -4.868  0.0000E+00  0.0000E+00  0.4000E+01  0.4000E+01
     -4.733  0.0000E+00  0.0000E+00  0.4000E+01  0.4000E+01
     -4.598  0.0000E+00  0.0000E+00  0.4000E+01  0.4000E+01
     -4.463  0.0000E+00  0.0000E+00  0.4000E+01  0.4000E+01
     -4.328  0.0000E+00  0.0000E+00  0.4000E+01  0.4000E+01
     -4.193  0.0000E+00  0.0000E+00  0.4000E+01  0.4000E+01
     -4.058  0.0000E+00  0.0000E+00  0.4000E+01  0.4000E+01
     -3.923  0.0000E+00  0.0000E+00  0.4000E+01  0.4000E+01
     -3.788  0.0000E+00  0.0000E+00  0.4000E+01  0.4000E+01
     -3.653  0.0000E+00  0.0000E+00  0.4000E+01  0.4000E+01
     -3.518  0.0000E+00  0.0000E+00  0.4000E+01  0.4000E+01
     -3.383  0.0000E+00  0.0000E+00  0.4000E+01  0.4000E+01
     -3.248  0.0000E+00  0.0000E+00  0.4000E+01  0.4000E+01
     -3.113  0.0000E+00  0.0000E+00  0.4000E+01  0.4000E+01
     -2.978  0.0000E+00  0.0000E+00  0.4000E+01  0.4000E+01
     -2.843  0.0000E+00  0.0000E+00  0.4000E+01  0.4000E+01
     -2.708  0.1473E-11  0.1469E-11  0.4000E+01  0.4000E+01
     -2.573  0.9489E-03  0.9478E-03  0.4000E+01  0.4000E+01
     -2.438  0.1645E+01  0.1644E+01  0.4222E+01  0.4222E+01
     -2.303  0.3159E+01  0.3159E+01  0.4649E+01  0.4649E+01
     -2.168  0.6703E+01  0.6703E+01  0.5554E+01  0.5554E+01
     -2.033  0.9055E+01  0.9054E+01  0.6776E+01  0.6776E+01
     -1.898  0.6372E+01  0.6373E+01  0.7636E+01  0.7636E+01
     -1.763  0.5677E+00  0.5678E+00  0.7713E+01  0.7713E+01
     -1.628  0.4719E+00  0.4719E+00  0.7777E+01  0.7777E+01
     -1.493  0.5631E+00  0.5630E+00  0.7853E+01  0.7853E+01
     -1.358  0.3801E+01  0.3801E+01  0.8366E+01  0.8366E+01
     -1.223  0.7895E+01  0.7895E+01  0.9432E+01  0.9432E+01
     -1.088  0.1025E+02  0.1025E+02  0.1082E+02  0.1082E+02
     -0.953  0.6550E+01  0.6550E+01  0.1170E+02  0.1170E+02
     -0.818  0.1717E+02  0.1717E+02  0.1402E+02  0.1402E+02
     -0.683  0.1053E+02  0.1054E+02  0.1544E+02  0.1544E+02
     -0.548  0.3415E+01  0.3415E+01  0.1590E+02  0.1590E+02
     -0.413  0.7294E+00  0.7297E+00  0.1600E+02  0.1600E+02
     -0.278  0.3006E-04  0.3012E-04  0.1600E+02  0.1600E+02
     -0.143  0.0000E+00  0.0000E+00  0.1600E+02  0.1600E+02
     -0.008  0.0000E+00  0.0000E+00  0.1600E+02  0.1600E+02
      0.127  0.0000E+00  0.0000E+00  0.1600E+02  0.1600E+02
      0.262  0.0000E+00  0.0000E+00  0.1600E+02  0.1600E+02
      0.397  0.0000E+00  0.0000E+00  0.1600E+02  0.1600E+02
      0.532  0.0000E+00  0.0000E+00  0.1600E+02  0.1600E+02
      0.667  0.0000E+00  0.0000E+00  0.1600E+02  0.1600E+02
      0.802  0.0000E+00  0.0000E+00  0.1600E+02  0.1600E+02
      0.937  0.0000E+00  0.0000E+00  0.1600E+02  0.1600E+02
      1.072  0.0000E+00  0.0000E+00  0.1600E+02  0.1600E+02
      1.207  0.0000E+00  0.0000E+00  0.1600E+02  0.1600E+02
      1.342  0.0000E+00  0.0000E+00  0.1600E+02  0.1600E+02
      1.477  0.0000E+00  0.0000E+00  0.1600E+02  0.1600E+02
      1.612  0.0000E+00  0.0000E+00  0.1600E+02  0.1600E+02
      1.747  0.0000E+00  0.0000E+00  0.1600E+02  0.1600E+02
      1.882  0.0000E+00  0.0000E+00  0.1600E+02  0.1600E+02
      2.017  0.0000E+00  0.0000E+00  0.1600E+02  0.1600E+02
      2.152  0.0000E+00  0.0000E+00  0.1600E+02  0.1600E+02
      2.287  0.0000E+00  0.0000E+00  0.1600E+02  0.1600E+02
      2.422  0.0000E+00  0.0000E+00  0.1600E+02  0.1600E+02
      2.557  0.0000E+00  0.0000E+00  0.1600E+02  0.1600E+02
      2.692  0.0000E+00  0.0000E+00  0.1600E+02  0.1600E+02
      2.827  0.0000E+00  0.0000E+00  0.1600E+02  0.1600E+02
      2.962  0.0000E+00  0.0000E+00  0.1600E+02  0.1600E+02
      3.097  0.0000E+00  0.0000E+00  0.1600E+02  0.1600E+02
      3.232  0.0000E+00  0.0000E+00  0.1600E+02  0.1600E+02
      3.367  0.0000E+00  0.0000E+00  0.1600E+02  0.1600E+02
      3.502  0.0000E+00  0.0000E+00  0.1600E+02  0.1600E+02
      3.637  0.0000E+00  0.0000E+00  0.1600E+02  0.1600E+02
      3.772  0.0000E+00  0.0000E+00  0.1600E+02  0.1600E+02
      3.907  0.0000E+00  0.0000E+00  0.1600E+02  0.1600E+02
      4.042  0.0000E+00  0.0000E+00  0.1600E+02  0.1600E+02
      4.177  0.0000E+00  0.0000E+00  0.1600E+02  0.1600E+02
      4.312  0.1508E-09  0.1509E-09  0.1600E+02  0.1600E+02
      4.448  0.2661E-02  0.2662E-02  0.1600E+02  0.1600E+02
      4.583  0.3302E+00  0.3302E+00  0.1604E+02  0.1604E+02
      4.718  0.2812E+00  0.2812E+00  0.1608E+02  0.1608E+02
      4.853  0.1875E+00  0.1875E+00  0.1611E+02  0.1611E+02
      4.988  0.1576E+00  0.1576E+00  0.1613E+02  0.1613E+02
      5.123  0.1413E+00  0.1413E+00  0.1615E+02  0.1615E+02
      5.258  0.1325E+00  0.1325E+00  0.1617E+02  0.1617E+02
      5.393  0.1255E+00  0.1255E+00  0.1618E+02  0.1618E+02
      5.528  0.1223E+00  0.1223E+00  0.1620E+02  0.1620E+02
      5.663  0.1196E+00  0.1196E+00  0.1622E+02  0.1622E+02
      5.798  0.1197E+00  0.1197E+00  0.1623E+02  0.1623E+02
      5.933  0.1190E+00  0.1190E+00  0.1625E+02  0.1625E+02
      6.068  0.1237E+00  0.1237E+00  0.1626E+02  0.1626E+02
      6.203  0.1269E+00  0.1269E+00  0.1628E+02  0.1628E+02
      6.338  0.1369E+00  0.1369E+00  0.1630E+02  0.1630E+02
      6.473  0.2296E+00  0.2296E+00  0.1633E+02  0.1633E+02
      6.608  0.5193E+00  0.5193E+00  0.1640E+02  0.1640E+02
      6.743  0.2269E+01  0.2269E+01  0.1671E+02  0.1671E+02
      6.878  0.3228E+01  0.3227E+01  0.1714E+02  0.1714E+02
      7.013  0.2662E+01  0.2662E+01  0.1750E+02  0.1750E+02
      7.148  0.2206E+01  0.2206E+01  0.1780E+02  0.1780E+02
      7.283  0.2139E+01  0.2139E+01  0.1809E+02  0.1809E+02
      7.418  0.2987E+01  0.2987E+01  0.1849E+02  0.1849E+02
      7.553  0.3630E+01  0.3630E+01  0.1898E+02  0.1898E+02
      7.688  0.4771E+01  0.4771E+01  0.1963E+02  0.1963E+02
      7.823  0.4544E+01  0.4544E+01  0.2024E+02  0.2024E+02
      7.958  0.1327E+01  0.1327E+01  0.2042E+02  0.2042E+02
      8.093  0.8466E+00  0.8466E+00  0.2053E+02  0.2053E+02
      8.228  0.5197E+00  0.5197E+00  0.2060E+02  0.2060E+02
      8.363  0.4674E+00  0.4674E+00  0.2067E+02  0.2067E+02
      8.498  0.4726E+00  0.4726E+00  0.2073E+02  0.2073E+02
      8.633  0.5168E+00  0.5168E+00  0.2080E+02  0.2080E+02
      8.768  0.6838E+00  0.6838E+00  0.2089E+02  0.2089E+02
      8.903  0.7607E+00  0.7607E+00  0.2100E+02  0.2100E+02
      9.038  0.1930E+01  0.1930E+01  0.2126E+02  0.2126E+02
      9.173  0.6875E+01  0.6875E+01  0.2218E+02  0.2218E+02
      9.308  0.6556E+01  0.6555E+01  0.2307E+02  0.2307E+02
      9.443  0.4534E+01  0.4534E+01  0.2368E+02  0.2368E+02
      9.578  0.4110E+01  0.4110E+01  0.2424E+02  0.2424E+02
      9.713  0.4453E+01  0.4449E+01  0.2484E+02  0.2484E+02
      9.848  0.4043E+01  0.4039E+01  0.2538E+02  0.2538E+02
      9.983  0.3293E+01  0.3351E+01  0.2583E+02  0.2583E+02
     10.118  0.3733E+01  0.3631E+01  0.2633E+02  0.2632E+02
     10.253  0.2182E+01  0.2215E+01  0.2663E+02  0.2662E+02
     10.388  0.3289E+01  0.3351E+01  0.2707E+02  0.2708E+02
     10.523  0.2140E+01  0.2056E+01  0.2736E+02  0.2735E+02
     10.658  0.2758E+01  0.2818E+01  0.2773E+02  0.2773E+02
     10.793  0.1381E+01  0.1372E+01  0.2792E+02  0.2792E+02
     10.928  0.5887E+00  0.5646E+00  0.2800E+02  0.2800E+02
     11.063  0.1613E-01  0.3126E-01  0.2800E+02  0.2800E+02
     11.198  0.1930E-06  0.2889E-05  0.2800E+02  0.2800E+02
     11.333  0.0000E+00  0.0000E+00  0.2800E+02  0.2800E+02
     11.468  0.0000E+00  0.0000E+00  0.2800E+02  0.2800E+02
     11.603  0.0000E+00  0.0000E+00  0.2800E+02  0.2800E+02
     11.738  0.0000E+00  0.0000E+00  0.2800E+02  0.2800E+02
     11.873  0.0000E+00  0.0000E+00  0.2800E+02  0.2800E+02
     12.008  0.0000E+00  0.0000E+00  0.2800E+02  0.2800E+02
     12.143  0.0000E+00  0.0000E+00  0.2800E+02  0.2800E+02
     12.278  0.0000E+00  0.0000E+00  0.2800E+02  0.2800E+02
     12.413  0.0000E+00  0.0000E+00  0.2800E+02  0.2800E+02
     12.548  0.0000E+00  0.0000E+00  0.2800E+02  0.2800E+02
     12.683  0.0000E+00  0.0000E+00  0.2800E+02  0.2800E+02
     12.818  0.0000E+00  0.0000E+00  0.2800E+02  0.2800E+02
     12.953  0.0000E+00  0.0000E+00  0.2800E+02  0.2800E+02
     13.088  0.0000E+00  0.0000E+00  0.2800E+02  0.2800E+02
     13.223  0.0000E+00  0.0000E+00  0.2800E+02  0.2800E+02
     13.358  0.0000E+00  0.0000E+00  0.2800E+02  0.2800E+02
     13.493  0.0000E+00  0.0000E+00  0.2800E+02  0.2800E+02
     13.628  0.0000E+00  0.0000E+00  0.2800E+02  0.2800E+02
     13.763  0.0000E+00  0.0000E+00  0.2800E+02  0.2800E+02
     13.898  0.0000E+00  0.0000E+00  0.2800E+02  0.2800E+02
     14.033  0.0000E+00  0.0000E+00  0.2800E+02  0.2800E+02
     14.168  0.0000E+00  0.0000E+00  0.2800E+02  0.2800E+02
     14.303  0.0000E+00  0.0000E+00  0.2800E+02  0.2800E+02
     14.438  0.0000E+00  0.0000E+00  0.2800E+02  0.2800E+02
     14.573  0.0000E+00  0.0000E+00  0.2800E+02  0.2800E+02
     14.708  0.0000E+00  0.0000E+00  0.2800E+02  0.2800E+02
     14.843  0.0000E+00  0.0000E+00  0.2800E+02  0.2800E+02
     14.978  0.0000E+00  0.0000E+00  0.2800E+02  0.2800E+02
     15.113  0.0000E+00  0.0000E+00  0.2800E+02  0.2800E+02
     15.248  0.0000E+00  0.0000E+00  0.2800E+02  0.2800E+02
     15.383  0.0000E+00  0.0000E+00  0.2800E+02  0.2800E+02
     15.518  0.0000E+00  0.0000E+00  0.2800E+02  0.2800E+02
     15.653  0.0000E+00  0.0000E+00  0.2800E+02  0.2800E+02
     15.788  0.0000E+00  0.0000E+00  0.2800E+02  0.2800E+02
     15.923  0.0000E+00  0.0000E+00  0.2800E+02  0.2800E+02
     16.058  0.0000E+00  0.0000E+00  0.2800E+02  0.2800E+02
     16.193  0.0000E+00  0.0000E+00  0.2800E+02  0.2800E+02
     16.328  0.0000E+00  0.0000E+00  0.2800E+02  0.2800E+02
     16.463  0.0000E+00  0.0000E+00  0.2800E+02  0.2800E+02
     16.598  0.0000E+00  0.0000E+00  0.2800E+02  0.2800E+02
     16.733  0.0000E+00  0.0000E+00  0.2800E+02  0.2800E+02
     16.868  0.0000E+00  0.0000E+00  0.2800E+02  0.2800E+02
     17.003  0.0000E+00  0.0000E+00  0.2800E+02  0.2800E+02
     17.138  0.0000E+00  0.0000E+00  0.2800E+02  0.2800E+02
     17.273  0.0000E+00  0.0000E+00  0.2800E+02  0.2800E+02
     17.408  0.0000E+00  0.0000E+00  0.2800E+02  0.2800E+02
     17.543  0.0000E+00  0.0000E+00  0.2800E+02  0.2800E+02
     17.678  0.0000E+00  0.0000E+00  0.2800E+02  0.2800E+02
     17.813  0.0000E+00  0.0000E+00  0.2800E+02  0.2800E+02
     17.948  0.0000E+00  0.0000E+00  0.2800E+02  0.2800E+02
     18.083  0.0000E+00  0.0000E+00  0.2800E+02  0.2800E+02
     18.218  0.0000E+00  0.0000E+00  0.2800E+02  0.2800E+02
     18.353  0.0000E+00  0.0000E+00  0.2800E+02  0.2800E+02
     18.488  0.0000E+00  0.0000E+00  0.2800E+02  0.2800E+02
     18.623  0.0000E+00  0.0000E+00  0.2800E+02  0.2800E+02
     18.758  0.0000E+00  0.0000E+00  0.2800E+02  0.2800E+02
     18.893  0.0000E+00  0.0000E+00  0.2800E+02  0.2800E+02
     19.028  0.0000E+00  0.0000E+00  0.2800E+02  0.2800E+02
     19.163  0.0000E+00  0.0000E+00  0.2800E+02  0.2800E+02
     19.298  0.0000E+00  0.0000E+00  0.2800E+02  0.2800E+02
     19.433  0.0000E+00  0.0000E+00  0.2800E+02  0.2800E+02
     19.568  0.0000E+00  0.0000E+00  0.2800E+02  0.2800E+02
     19.703  0.0000E+00  0.0000E+00  0.2800E+02  0.2800E+02
     19.838  0.0000E+00  0.0000E+00  0.2800E+02  0.2800E+02
     19.973  0.0000E+00  0.0000E+00  0.2800E+02  0.2800E+02
     20.108  0.0000E+00  0.0000E+00  0.2800E+02  0.2800E+02
     20.243  0.0000E+00  0.0000E+00  0.2800E+02  0.2800E+02
     20.378  0.0000E+00  0.0000E+00  0.2800E+02  0.2800E+02
     20.513  0.0000E+00  0.0000E+00  0.2800E+02  0.2800E+02
     20.648  0.0000E+00  0.0000E+00  0.2800E+02  0.2800E+02
     20.783  0.0000E+00  0.0000E+00  0.2800E+02  0.2800E+02
     20.918  0.0000E+00  0.0000E+00  0.2800E+02  0.2800E+02
     21.053  0.0000E+00  0.0000E+00  0.2800E+02  0.2800E+02
     21.188  0.0000E+00  0.0000E+00  0.2800E+02  0.2800E+02
     21.323  0.0000E+00  0.0000E+00  0.2800E+02  0.2800E+02
     21.458  0.0000E+00  0.0000E+00  0.2800E+02  0.2800E+02
     21.593  0.0000E+00  0.0000E+00  0.2800E+02  0.2800E+02
     21.728  0.0000E+00  0.0000E+00  0.2800E+02  0.2800E+02
     21.863  0.0000E+00  0.0000E+00  0.2800E+02  0.2800E+02
     21.998  0.0000E+00  0.0000E+00  0.2800E+02  0.2800E+02
     22.133  0.0000E+00  0.0000E+00  0.2800E+02  0.2800E+02
     22.268  0.0000E+00  0.0000E+00  0.2800E+02  0.2800E+02
     22.403  0.0000E+00  0.0000E+00  0.2800E+02  0.2800E+02
     22.538  0.0000E+00  0.0000E+00  0.2800E+02  0.2800E+02
     22.673  0.0000E+00  0.0000E+00  0.2800E+02  0.2800E+02
     22.808  0.0000E+00  0.0000E+00  0.2800E+02  0.2800E+02
     22.943  0.0000E+00  0.0000E+00  0.2800E+02  0.2800E+02
     23.078  0.0000E+00  0.0000E+00  0.2800E+02  0.2800E+02
     23.213  0.0000E+00  0.0000E+00  0.2800E+02  0.2800E+02
     23.348  0.0000E+00  0.0000E+00  0.2800E+02  0.2800E+02
     23.483  0.0000E+00  0.0000E+00  0.2800E+02  0.2800E+02
     23.618  0.0000E+00  0.0000E+00  0.2800E+02  0.2800E+02
     23.753  0.0000E+00  0.0000E+00  0.2800E+02  0.2800E+02
     23.888  0.0000E+00  0.0000E+00  0.2800E+02  0.2800E+02
     24.023  0.0000E+00  0.0000E+00  0.2800E+02  0.2800E+02
     24.158  0.0000E+00  0.0000E+00  0.2800E+02  0.2800E+02
     24.293  0.0000E+00  0.0000E+00  0.2800E+02  0.2800E+02
     24.428  0.0000E+00  0.0000E+00  0.2800E+02  0.2800E+02
     24.563  0.0000E+00  0.0000E+00  0.2800E+02  0.2800E+02
     24.698  0.0000E+00  0.0000E+00  0.2800E+02  0.2800E+02
     24.833  0.0000E+00  0.0000E+00  0.2800E+02  0.2800E+02
     24.968  0.0000E+00  0.0000E+00  0.2800E+02  0.2800E+02
     25.103  0.0000E+00  0.0000E+00  0.2800E+02  0.2800E+02
     25.238  0.0000E+00  0.0000E+00  0.2800E+02  0.2800E+02
     25.373  0.0000E+00  0.0000E+00  0.2800E+02  0.2800E+02
     25.508  0.0000E+00  0.0000E+00  0.2800E+02  0.2800E+02
     25.643  0.0000E+00  0.0000E+00  0.2800E+02  0.2800E+02
     25.778  0.0000E+00  0.0000E+00  0.2800E+02  0.2800E+02
     25.913  0.0000E+00  0.0000E+00  0.2800E+02  0.2800E+02
     26.048  0.0000E+00  0.0000E+00  0.2800E+02  0.2800E+02
     26.183  0.0000E+00  0.0000E+00  0.2800E+02  0.2800E+02
     26.318  0.0000E+00  0.0000E+00  0.2800E+02  0.2800E+02
     26.453  0.0000E+00  0.0000E+00  0.2800E+02  0.2800E+02
     26.588  0.0000E+00  0.0000E+00  0.2800E+02  0.2800E+02
     26.723  0.0000E+00  0.0000E+00  0.2800E+02  0.2800E+02
     26.858  0.0000E+00  0.0000E+00  0.2800E+02  0.2800E+02
     26.993  0.0000E+00  0.0000E+00  0.2800E+02  0.2800E+02
     27.128  0.0000E+00  0.0000E+00  0.2800E+02  0.2800E+02
     27.263  0.0000E+00  0.0000E+00  0.2800E+02  0.2800E+02
     27.398  0.0000E+00  0.0000E+00  0.2800E+02  0.2800E+02
     27.533  0.0000E+00  0.0000E+00  0.2800E+02  0.2800E+02
     27.668  0.0000E+00  0.0000E+00  0.2800E+02  0.2800E+02
     27.803  0.0000E+00  0.0000E+00  0.2800E+02  0.2800E+02
     27.938  0.0000E+00  0.0000E+00  0.2800E+02  0.2800E+02
     27.93799110    -12.56285136  301     -0.26072047      1.00000000
    -12.563  0.5738E-02  0.5738E-02  0.1179E-02  0.1179E-02  0.2426E-02  0.2426E-02  0.2495E-02  0.2495E-02  0.0000E+00  0.0000E+00  0.0000E+00  0.0000E+00  0.0000E+00  0.0000E+00  0.0000E+00  0.0000E+00  0.0000E+00  0.0000E+00
    -12.428  0.6250E-16  0.6258E-16  0.6942E-18  0.6952E-18  0.6403E-17  0.6410E-17  0.5353E-17  0.5360E-17  0.0000E+00  0.0000E+00  0.0000E+00  0.0000E+00  0.0000E+00  0.0000E+00  0.0000E+00  0.0000E+00  0.0000E+00  0.0000E+00
    -12.293  0.0000E+00  0.0000E+00  0.0000E+00  0.0000E+00  0.0000E+00  0.0000E+00  0.0000E+00  0.0000E+00  0.0000E+00  0.0000E+00  0.0000E+00  0.0000E+00  0.0000E+00  0.0000E+00  0.0000E+00  0.0000E+00  0.0000E+00  0.0000E+00
    -12.158  0.0000E+00  0.0000E+00  0.0000E+00  0.0000E+00  0.0000E+00  0.0000E+00  0.0000E+00  0.0000E+00  0.0000E+00  0.0000E+00  0.0000E+00  0.0000E+00  0.0000E+00  0.0000E+00  0.0000E+00  0.0000E+00  0.0000E+00  0.0000E+00
    -12.023  0.0000E+00  0.0000E+00  0.0000E+00  0.0000E+00  0.0000E+00  0.0000E+00  0.0000E+00  0.0000E+00  0.0000E+00  0.0000E+00  0.0000E+00  0.0000E+00  0.0000E+00  0.0000E+00  0.0000E+00  0.0000E+00  0.0000E+00  0.0000E+00
    -11.888  0.0000E+00  0.0000E+00  0.0000E+00  0.0000E+00  0.0000E+00  0.0000E+00  0.0000E+00  0.0000E+00  0.0000E+00  0.0000E+00  0.0000E+00  0.0000E+00  0.0000E+00  0.0000E+00  0.0000E+00  0.0000E+00  0.0000E+00  0.0000E+00
    -11.753  0.0000E+00  0.0000E+00  0.0000E+00  0.0000E+00  0.0000E+00  0.0000E+00  0.0000E+00  0.0000E+00  0.0000E+00  0.0000E+00  0.0000E+00  0.0000E+00  0.0000E+00  0.0000E+00  0.0000E+00  0.0000E+00  0.0000E+00  0.0000E+00
    -11.618  0.0000E+00  0.0000E+00  0.0000E+00  0.0000E+00  0.0000E+00  0.0000E+00  0.0000E+00  0.0000E+00  0.0000E+00  0.0000E+00  0.0000E+00  0.0000E+00  0.0000E+00  0.0000E+00  0.0000E+00  0.0000E+00  0.0000E+00  0.0000E+00
    -11.483  0.0000E+00  0.0000E+00  0.0000E+00  0.0000E+00  0.0000E+00  0.0000E+00  0.0000E+00  0.0000E+00  0.0000E+00  0.0000E+00  0.0000E+00  0.0000E+00  0.0000E+00  0.0000E+00  0.0000E+00  0.0000E+00  0.0000E+00  0.0000E+00
    -11.348  0.0000E+00  0.0000E+00  0.0000E+00  0.0000E+00  0.0000E+00  0.0000E+00  0.0000E+00  0.0000E+00  0.0000E+00  0.0000E+00  0.0000E+00  0.0000E+00  0.0000E+00  0.0000E+00  0.0000E+00  0.0000E+00  0.0000E+00  0.0000E+00
    -11.213  0.0000E+00  0.0000E+00  0.0000E+00  0.0000E+00  0.0000E+00  0.0000E+00  0.0000E+00  0.0000E+00  0.0000E+00  0.0000E+00  0.0000E+00  0.0000E+00  0.0000E+00  0.0000E+00  0.0000E+00  0.0000E+00  0.0000E+00  0.0000E+00
    -11.078  0.0000E+00  0.0000E+00  0.0000E+00  0.0000E+00  0.0000E+00  0.0000E+00  0.0000E+00  0.0000E+00  0.0000E+00  0.0000E+00  0.0000E+00  0.0000E+00  0.0000E+00  0.0000E+00  0.0000E+00  0.0000E+00  0.0000E+00  0.0000E+00
    -10.943  0.0000E+00  0.0000E+00  0.0000E+00  0.0000E+00  0.0000E+00  0.0000E+00  0.0000E+00  0.0000E+00  0.0000E+00  0.0000E+00  0.0000E+00  0.0000E+00  0.0000E+00  0.0000E+00  0.0000E+00  0.0000E+00  0.0000E+00  0.0000E+00
    -10.808  0.0000E+00  0.0000E+00  0.0000E+00  0.0000E+00  0.0000E+00  0.0000E+00  0.0000E+00  0.0000E+00  0.0000E+00  0.0000E+00  0.0000E+00  0.0000E+00  0.0000E+00  0.0000E+00  0.0000E+00  0.0000E+00  0.0000E+00  0.0000E+00
    -10.673  0.0000E+00  0.0000E+00  0.0000E+00  0.0000E+00  0.0000E+00  0.0000E+00  0.0000E+00  0.0000E+00  0.0000E+00  0.0000E+00  0.0000E+00  0.0000E+00  0.0000E+00  0.0000E+00  0.0000E+00  0.0000E+00  0.0000E+00  0.0000E+00
    -10.538  0.0000E+00  0.0000E+00  0.0000E+00  0.0000E+00  0.0000E+00  0.0000E+00  0.0000E+00  0.0000E+00  0.0000E+00  0.0000E+00  0.0000E+00  0.0000E+00  0.0000E+00  0.0000E+00  0.0000E+00  0.0000E+00  0.0000E+00  0.0000E+00
    -10.403  0.0000E+00  0.0000E+00  0.0000E+00  0.0000E+00  0.0000E+00  0.0000E+00  0.0000E+00  0.0000E+00  0.0000E+00  0.0000E+00  0.0000E+00  0.0000E+00  0.0000E+00  0.0000E+00  0.0000E+00  0.0000E+00  0.0000E+00  0.0000E+00
    -10.268  0.0000E+00  0.0000E+00  0.0000E+00  0.0000E+00  0.0000E+00  0.0000E+00  0.0000E+00  0.0000E+00  0.0000E+00  0.0000E+00  0.0000E+00  0.0000E+00  0.0000E+00  0.0000E+00  0.0000E+00  0.0000E+00  0.0000E+00  0.0000E+00
    -10.133  0.0000E+00  0.0000E+00  0.0000E+00  0.0000E+00  0.0000E+00  0.0000E+00  0.0000E+00  0.0000E+00  0.0000E+00  0.0000E+00  0.0000E+00  0.0000E+00  0.0000E+00  0.0000E+00  0.0000E+00  0.0000E+00  0.0000E+00  0.0000E+00
     -9.998  0.0000E+00  0.0000E+00  0.0000E+00  0.0000E+00  0.0000E+00  0.0000E+00  0.0000E+00  0.0000E+00  0.0000E+00  0.0000E+00  0.0000E+00  0.0000E+00  0.0000E+00  0.0000E+00  0.0000E+00  0.0000E+00  0.0000E+00  0.0000E+00
     -9.863  0.0000E+00  0.0000E+00  0.0000E+00  0.0000E+00  0.0000E+00  0.0000E+00  0.0000E+00  0.0000E+00  0.0000E+00  0.0000E+00  0.0000E+00  0.0000E+00  0.0000E+00  0.0000E+00  0.0000E+00  0.0000E+00  0.0000E+00  0.0000E+00
     -9.728  0.0000E+00  0.0000E+00  0.0000E+00  0.0000E+00  0.0000E+00  0.0000E+00  0.0000E+00  0.0000E+00  0.0000E+00  0.0000E+00  0.0000E+00  0.0000E+00  0.0000E+00  0.0000E+00  0.0000E+00  0.0000E+00  0.0000E+00  0.0000E+00
     -9.593  0.0000E+00  0.0000E+00  0.0000E+00  0.0000E+00  0.0000E+00  0.0000E+00  0.0000E+00  0.0000E+00  0.0000E+00  0.0000E+00  0.0000E+00  0.0000E+00  0.0000E+00  0.0000E+00  0.0000E+00  0.0000E+00  0.0000E+00  0.0000E+00
     -9.458  0.0000E+00  0.0000E+00  0.0000E+00  0.0000E+00  0.0000E+00  0.0000E+00  0.0000E+00  0.0000E+00  0.0000E+00  0.0000E+00  0.0000E+00  0.0000E+00  0.0000E+00  0.0000E+00  0.0000E+00  0.0000E+00  0.0000E+00  0.0000E+00
     -9.323  0.0000E+00  0.0000E+00  0.0000E+00  0.0000E+00  0.0000E+00  0.0000E+00  0.0000E+00  0.0000E+00  0.0000E+00  0.0000E+00  0.0000E+00  0.0000E+00  0.0000E+00  0.0000E+00  0.0000E+00  0.0000E+00  0.0000E+00  0.0000E+00
     -9.188  0.0000E+00  0.0000E+00  0.0000E+00  0.0000E+00  0.0000E+00  0.0000E+00  0.0000E+00  0.0000E+00  0.0000E+00  0.0000E+00  0.0000E+00  0.0000E+00  0.0000E+00  0.0000E+00  0.0000E+00  0.0000E+00  0.0000E+00  0.0000E+00
     -9.053  0.0000E+00  0.0000E+00  0.0000E+00  0.0000E+00  0.0000E+00  0.0000E+00  0.0000E+00  0.0000E+00  0.0000E+00  0.0000E+00  0.0000E+00  0.0000E+00  0.0000E+00  0.0000E+00  0.0000E+00  0.0000E+00  0.0000E+00  0.0000E+00
     -8.918  0.0000E+00  0.0000E+00  0.0000E+00  0.0000E+00  0.0000E+00  0.0000E+00  0.0000E+00  0.0000E+00  0.0000E+00  0.0000E+00  0.0000E+00  0.0000E+00  0.0000E+00  0.0000E+00  0.0000E+00  0.0000E+00  0.0000E+00  0.0000E+00
     -8.783  0.0000E+00  0.0000E+00  0.0000E+00  0.0000E+00  0.0000E+00  0.0000E+00  0.0000E+00  0.0000E+00  0.0000E+00  0.0000E+00  0.0000E+00  0.0000E+00  0.0000E+00  0.0000E+00  0.0000E+00  0.0000E+00  0.0000E+00  0.0000E+00
     -8.648  0.0000E+00  0.0000E+00  0.0000E+00  0.0000E+00  0.0000E+00  0.0000E+00  0.0000E+00  0.0000E+00  0.0000E+00  0.0000E+00  0.0000E+00  0.0000E+00  0.0000E+00  0.0000E+00  0.0000E+00  0.0000E+00  0.0000E+00  0.0000E+00
     -8.513  0.0000E+00  0.0000E+00  0.0000E+00  0.0000E+00  0.0000E+00  0.0000E+00  0.0000E+00  0.0000E+00  0.0000E+00  0.0000E+00  0.0000E+00  0.0000E+00  0.0000E+00  0.0000E+00  0.0000E+00  0.0000E+00  0.0000E+00  0.0000E+00
     -8.378  0.0000E+00  0.0000E+00  0.0000E+00  0.0000E+00  0.0000E+00  0.0000E+00  0.0000E+00  0.0000E+00  0.0000E+00  0.0000E+00  0.0000E+00  0.0000E+00  0.0000E+00  0.0000E+00  0.0000E+00  0.0000E+00  0.0000E+00  0.0000E+00
     -8.243  0.0000E+00  0.0000E+00  0.0000E+00  0.0000E+00  0.0000E+00  0.0000E+00  0.0000E+00  0.0000E+00  0.0000E+00  0.0000E+00  0.0000E+00  0.0000E+00  0.0000E+00  0.0000E+00  0.0000E+00  0.0000E+00  0.0000E+00  0.0000E+00
     -8.108  0.0000E+00  0.0000E+00  0.0000E+00  0.0000E+00  0.0000E+00  0.0000E+00  0.0000E+00  0.0000E+00  0.0000E+00  0.0000E+00  0.0000E+00  0.0000E+00  0.0000E+00  0.0000E+00  0.0000E+00  0.0000E+00  0.0000E+00  0.0000E+00
     -7.973  0.0000E+00  0.0000E+00  0.0000E+00  0.0000E+00  0.0000E+00  0.0000E+00  0.0000E+00  0.0000E+00  0.0000E+00  0.0000E+00  0.0000E+00  0.0000E+00  0.0000E+00  0.0000E+00  0.0000E+00  0.0000E+00  0.0000E+00  0.0000E+00
     -7.838  0.0000E+00  0.0000E+00  0.0000E+00  0.0000E+00  0.0000E+00  0.0000E+00  0.0000E+00  0.0000E+00  0.0000E+00  0.0000E+00  0.0000E+00  0.0000E+00  0.0000E+00  0.0000E+00  0.0000E+00  0.0000E+00  0.0000E+00  0.0000E+00
     -7.703  0.0000E+00  0.0000E+00  0.0000E+00  0.0000E+00  0.0000E+00  0.0000E+00  0.0000E+00  0.0000E+00  0.0000E+00  0.0000E+00  0.0000E+00  0.0000E+00  0.0000E+00  0.0000E+00  0.0000E+00  0.0000E+00  0.0000E+00  0.0000E+00
     -7.568  0.0000E+00  0.0000E+00  0.0000E+00  0.0000E+00  0.0000E+00  0.0000E+00  0.0000E+00  0.0000E+00  0.0000E+00  0.0000E+00  0.0000E+00  0.0000E+00  0.0000E+00  0.0000E+00  0.0000E+00  0.0000E+00  0.0000E+00  0.0000E+00
     -7.433  0.0000E+00  0.0000E+00  0.0000E+00  0.0000E+00  0.0000E+00  0.0000E+00  0.0000E+00  0.0000E+00  0.0000E+00  0.0000E+00  0.0000E+00  0.0000E+00  0.0000E+00  0.0000E+00  0.0000E+00  0.0000E+00  0.0000E+00  0.0000E+00
     -7.298  0.0000E+00  0.0000E+00  0.0000E+00  0.0000E+00  0.0000E+00  0.0000E+00  0.0000E+00  0.0000E+00  0.0000E+00  0.0000E+00  0.0000E+00  0.0000E+00  0.0000E+00  0.0000E+00  0.0000E+00  0.0000E+00  0.0000E+00  0.0000E+00
     -7.163  0.0000E+00  0.0000E+00  0.0000E+00  0.0000E+00  0.0000E+00  0.0000E+00  0.0000E+00  0.0000E+00  0.0000E+00  0.0000E+00  0.0000E+00  0.0000E+00  0.0000E+00  0.0000E+00  0.0000E+00  0.0000E+00  0.0000E+00  0.0000E+00
     -7.028  0.0000E+00  0.0000E+00  0.0000E+00  0.0000E+00  0.0000E+00  0.0000E+00  0.0000E+00  0.0000E+00  0.0000E+00  0.0000E+00  0.0000E+00  0.0000E+00  0.0000E+00  0.0000E+00  0.0000E+00  0.0000E+00  0.0000E+00  0.0000E+00
     -6.893  0.0000E+00  0.0000E+00  0.0000E+00  0.0000E+00  0.0000E+00  0.0000E+00  0.0000E+00  0.0000E+00  0.0000E+00  0.0000E+00  0.0000E+00  0.0000E+00  0.0000E+00  0.0000E+00  0.0000E+00  0.0000E+00  0.0000E+00  0.0000E+00
     -6.758  0.0000E+00  0.0000E+00  0.0000E+00  0.0000E+00  0.0000E+00  0.0000E+00  0.0000E+00  0.0000E+00  0.0000E+00  0.0000E+00  0.0000E+00  0.0000E+00  0.0000E+00  0.0000E+00  0.0000E+00  0.0000E+00  0.0000E+00  0.0000E+00
     -6.623  0.0000E+00  0.0000E+00  0.0000E+00  0.0000E+00  0.0000E+00  0.0000E+00  0.0000E+00  0.0000E+00  0.0000E+00  0.0000E+00  0.0000E+00  0.0000E+00  0.0000E+00  0.0000E+00  0.0000E+00  0.0000E+00  0.0000E+00  0.0000E+00
     -6.488  0.0000E+00  0.0000E+00  0.0000E+00  0.0000E+00  0.0000E+00  0.0000E+00  0.0000E+00  0.0000E+00  0.0000E+00  0.0000E+00  0.0000E+00  0.0000E+00  0.0000E+00  0.0000E+00  0.0000E+00  0.0000E+00  0.0000E+00  0.0000E+00
     -6.353  0.0000E+00  0.0000E+00  0.0000E+00  0.0000E+00  0.0000E+00  0.0000E+00  0.0000E+00  0.0000E+00  0.0000E+00  0.0000E+00  0.0000E+00  0.0000E+00  0.0000E+00  0.0000E+00  0.0000E+00  0.0000E+00  0.0000E+00  0.0000E+00
     -6.218  0.0000E+00  0.0000E+00  0.0000E+00  0.0000E+00  0.0000E+00  0.0000E+00  0.0000E+00  0.0000E+00  0.0000E+00  0.0000E+00  0.0000E+00  0.0000E+00  0.0000E+00  0.0000E+00  0.0000E+00  0.0000E+00  0.0000E+00  0.0000E+00
     -6.083  0.0000E+00  0.0000E+00  0.0000E+00  0.0000E+00  0.0000E+00  0.0000E+00  0.0000E+00  0.0000E+00  0.0000E+00  0.0000E+00  0.0000E+00  0.0000E+00  0.0000E+00  0.0000E+00  0.0000E+00  0.0000E+00  0.0000E+00  0.0000E+00
     -5.948  0.0000E+00  0.0000E+00  0.0000E+00  0.0000E+00  0.0000E+00  0.0000E+00  0.0000E+00  0.0000E+00  0.0000E+00  0.0000E+00  0.0000E+00  0.0000E+00  0.0000E+00  0.0000E+00  0.0000E+00  0.0000E+00  0.0000E+00  0.0000E+00
     -5.813  0.0000E+00  0.0000E+00  0.0000E+00  0.0000E+00  0.0000E+00  0.0000E+00  0.0000E+00  0.0000E+00  0.0000E+00  0.0000E+00  0.0000E+00  0.0000E+00  0.0000E+00  0.0000E+00  0.0000E+00  0.0000E+00  0.0000E+00  0.0000E+00