    8    8    1    2
  0.2253304E+02  0.5648979E-09  0.5648979E-09  0.5648979E-09  0.5000000E-15
  1.000000000000000E-004
  CAR 
 NaCl (band)                             
   32  300   28
 
  0.0000000E+00  0.0000000E+00  0.0000000E+00  0.3333333E-02
   1      -13.198635    -13.198628
   2      -12.819090    -12.819083
   3      -12.819090    -12.819083
   4      -12.819090    -12.819083
   5       -2.222808     -2.222798
   6       -2.222808     -2.222798
   7       -2.222808     -2.222798
   8       -1.152898     -1.152883
   9       -1.152898     -1.152883
  10       -1.152898     -1.152883
  11       -1.152898     -1.152883
  12       -1.152898     -1.152883
  13       -1.152898     -1.152883
  14       -0.554180     -0.554166
  15       -0.554180     -0.554166
  16       -0.554180     -0.554166
  17        4.523379      4.523374
  18        6.949678      6.949695
  19        6.949678      6.949695
  20        6.949678      6.949695
  21        7.528551      7.528529
  22        7.528551      7.528529
  23        7.528551      7.528529
  24       10.560741     10.560764
  25       10.560741     10.560765
  26       10.604745     10.564456
  27       10.692732     10.692715
  28       10.692736     10.692722
 
  0.1020408E-01  0.0000000E+00  0.1020408E-01  0.3333333E-02
   1      -13.198443    -13.198436
   2      -12.819174    -12.819168
   3      -12.819174    -12.819168
   4      -12.819070    -12.819064
   5       -2.222354     -2.222343
   6       -2.222333     -2.222323
   7       -2.222333     -2.222323
   8       -1.154048     -1.154033
   9       -1.153079     -1.153064
  10       -1.153079     -1.153064
  11       -1.152877     -1.152862
  12       -1.152877     -1.152862
  13       -1.152670     -1.152654
  14       -0.555948     -0.555934
  15       -0.554528     -0.554514
  16       -0.554286     -0.554272
  17        4.525839      4.525835
  18        6.951004      6.951022
  19        6.951004      6.951022
  20        6.951551      6.951569
  21        7.529843      7.529821
  22        7.529844      7.529821
  23        7.530241      7.530219
  24       10.557687     10.558338
  25       10.561782     10.561938
  26       10.569074     10.574592
  27       10.690437     10.690471
  28       10.690774     10.690556
 
  0.2040816E-01  0.0000000E+00  0.2040816E-01  0.3333333E-02
   1      -13.197858    -13.197852
   2      -12.819439    -12.819433
   3      -12.819439    -12.819433
   4      -12.819025    -12.819018
   5       -2.221006     -2.220996
   6       -2.220925     -2.220915
   7       -2.220925     -2.220915
   8       -1.157608     -1.157593
   9       -1.153706     -1.153690
  10       -1.153706     -1.153690
  11       -1.152926     -1.152911
  12       -1.152926     -1.152911
  13       -1.152103     -1.152087
  14       -0.561237     -0.561223
  15       -0.555573     -0.555559
  16       -0.554606     -0.554592
  17        4.533204      4.533199
  18        6.954966      6.954983
  19        6.954966      6.954983
  20        6.957129      6.957147
  21        7.533707      7.533685
  22        7.533707      7.533685
  23        7.535308      7.535285
  24       10.550221     10.550312
  25       10.564851     10.565149
  26       10.572042     10.605574
  27       10.683402     10.683384
  28       10.683652     10.684589
 
  0.3061224E-01  0.0000000E+00  0.3061224E-01  0.3333333E-02
   1      -13.196882    -13.196876
   2      -12.819879    -12.819873
   3      -12.819879    -12.819873
   4      -12.818949    -12.818943
   5       -2.218763     -2.218752
   6       -2.218592     -2.218581
   7       -2.218592     -2.218581
   8       -1.163511     -1.163495
   9       -1.154747     -1.154732
  10       -1.154747     -1.154732
  11       -1.152995     -1.152980
  12       -1.152995     -1.152980
  13       -1.151158     -1.151143
  14       -0.570002     -0.569988
  15       -0.557316     -0.557302
  16       -0.555139     -0.555125
  17        4.545427      4.545422
  18        6.961552      6.961569
  19        6.961552      6.961569
  20        6.966345      6.966362
  21        7.540138      7.540115
  22        7.540138      7.540115
  23        7.543778      7.543756
  24       10.532597     10.531334
  25       10.570139     10.570647
  26       10.581644     10.575577
  27       10.671821     10.671789
  28       10.675739     10.675492
 
  0.4081633E-01  0.0000000E+00  0.4081633E-01  0.3333333E-02
   1      -13.195519    -13.195513
   2      -12.820492    -12.820486
   3      -12.820492    -12.820486
   4      -12.818845    -12.818839
   5       -2.215624     -2.215613
   6       -2.215351     -2.215340
   7       -2.215351     -2.215340
   8       -1.171713     -1.171697
   9       -1.156188     -1.156172
  10       -1.156188     -1.156172
  11       -1.153068     -1.153052
  12       -1.153068     -1.153052
  13       -1.149838     -1.149823
  14       -0.582214     -0.582200
  15       -0.559759     -0.559745
  16       -0.555888     -0.555874
  17        4.562432      4.562427
  18        6.970741      6.970758
  19        6.970741      6.970758
  20        6.979076      6.979093
  21        7.549121      7.549099
  22        7.549121      7.549099
  23        7.555693      7.555671
  24       10.506456     10.515976
  25       10.579292     10.576049
  26       10.596646     10.593470
  27       10.655499     10.655477
  28       10.663336     10.665765
 
  0.5102041E-01  0.0000000E+00  0.5102041E-01  0.3333333E-02
   1      -13.193772    -13.193766
   2      -12.821274    -12.821268
   3      -12.821274    -12.821268
   4      -12.818712    -12.818706
   5       -2.211587     -2.211576
   6       -2.211230     -2.211219
   7       -2.211230     -2.211219
   8       -1.182122     -1.182107
   9       -1.158039     -1.158023
  10       -1.158039     -1.158023
  11       -1.153102     -1.153087
  12       -1.153102     -1.153087
  13       -1.148133     -1.148118
  14       -0.597712     -0.597698
  15       -0.562923     -0.562909
  16       -0.556862     -0.556848
  17        4.584116      4.584112
  18        6.982498      6.982516
  19        6.982498      6.982516
  20        6.995160      6.995177
  21        7.560639      7.560617
  22        7.560639      7.560617
  23        7.571107      7.571084
  24       10.487633     10.482056
  25       10.585828     10.584671
  26       10.608086     10.598052
  27       10.634663     10.634965
  28       10.650933     10.644978
 
  0.6122449E-01  0.0000000E+00  0.6122449E-01  0.3333333E-02
   1      -13.191642    -13.191636
   2      -12.822223    -12.822217
   3      -12.822223    -12.822217
   4      -12.818560    -12.818554
   5       -2.206668     -2.206658
   6       -2.206265     -2.206254
   7       -2.206265     -2.206254
   8       -1.194728     -1.194713
   9       -1.160278     -1.160263
  10       -1.160278     -1.160263
  11       -1.153094     -1.153079
  12       -1.153094     -1.153079
  13       -1.146067     -1.146052
  14       -0.616363     -0.616349
  15       -0.566773     -0.566759
  16       -0.558054     -0.558040
  17        4.610353      4.610349
  18        6.996783      6.996800
  19        6.996783      6.996800
  20        7.014390      7.014407
  21        7.574667      7.574644
  22        7.574667      7.574644
  23        7.590071      7.590049
  24       10.447714     10.445235
  25       10.592982     10.593097
  26       10.602837     10.603137
  27       10.609358     10.609310
  28       10.635912     10.614239
 
  0.7142857E-01  0.0000000E+00  0.7142857E-01  0.3333333E-02
   1      -13.189133    -13.189127
   2      -12.823337    -12.823331
   3      -12.823337    -12.823331
   4      -12.818388    -12.818382
   5       -2.200867     -2.200856
   6       -2.200501     -2.200490
   7       -2.200501     -2.200490
   8       -1.209400     -1.209385
   9       -1.162906     -1.162891
  10       -1.162906     -1.162891
  11       -1.153016     -1.153001
  12       -1.153016     -1.153001
  13       -1.143614     -1.143599
  14       -0.638028     -0.638014
  15       -0.571316     -0.571302
  16       -0.559448     -0.559433
  17        4.640993      4.640989
  18        7.013541      7.013558
  19        7.013541      7.013558
  20        7.036529      7.036547
  21        7.591171      7.591149
  22        7.591172      7.591149
  23        7.612647      7.612625
  24       10.403210     10.403550
  25       10.579533     10.579524
  26       10.597631     10.604022
  27       10.605380     10.612580
  28       10.617063     10.616718
 
  0.8163265E-01  0.0000000E+00  0.8163265E-01  0.3333333E-02
   1      -13.186253    -13.186247
   2      -12.824611    -12.824605
   3      -12.824611    -12.824605
   4      -12.818204    -12.818198
   5       -2.194187     -2.194176
   6       -2.193985     -2.193974
   7       -2.193985     -2.193974
   8       -1.226052     -1.226037
   9       -1.165905     -1.165889
  10       -1.165905     -1.165889
  11       -1.152813     -1.152797
  12       -1.152813     -1.152797
  13       -1.140813     -1.140798
  14       -0.662558     -0.662544
  15       -0.576590     -0.576576
  16       -0.561068     -0.561054
  17        4.675868      4.675864
  18        7.032710      7.032728
  19        7.032710      7.032728
  20        7.061315      7.061332
  21        7.610119      7.610097
  22        7.610119      7.610097
  23        7.638889      7.638867
  24       10.359826     10.365208
  25       10.545406     10.545394
  26       10.583168     10.554484
  27       10.605028     10.617557
  28       10.631574     10.632069
 
  0.9183673E-01  0.0000000E+00  0.9183673E-01  0.3333333E-02
   1      -13.183005    -13.182999
   2      -12.826038    -12.826032
   3      -12.826038    -12.826032
   4      -12.818012    -12.818006
   5       -2.186772     -2.186762
   6       -2.186772     -2.186762
   7       -2.186635     -2.186624
   8       -1.244564     -1.244549
   9       -1.169258     -1.169243
  10       -1.169258     -1.169243
  11       -1.152436     -1.152420
  12       -1.152436     -1.152420
  13       -1.137651     -1.137636
  14       -0.689743     -0.689729
  15       -0.582540     -0.582526
  16       -0.562891     -0.562877
  17        4.714795      4.714790
  18        7.054218      7.054235
  19        7.054218      7.054235
  20        7.088469      7.088485
  21        7.631468      7.631446
  22        7.631468      7.631446
  23        7.668833      7.668811
  24       10.316326     10.313941
  25       10.507085     10.507047
  26       10.548800     10.513717
  27       10.631519     10.633213
  28       10.649970     10.641073
 
  0.1020408E+00  0.0000000E+00  0.1020408E+00  0.3333333E-02
   1      -13.179399    -13.179393
   2      -12.827611    -12.827605
   3      -12.827611    -12.827605
   4      -12.817818    -12.817811
   5       -2.178927     -2.178916
   6       -2.178927     -2.178916
   7       -2.178219     -2.178208
   8       -1.264810     -1.264795
   9       -1.172951     -1.172936
  10       -1.172951     -1.172936
  11       -1.151833     -1.151818
  12       -1.151833     -1.151818
  13       -1.134133     -1.134118
  14       -0.719417     -0.719403
  15       -0.589196     -0.589182
  16       -0.564937     -0.564922
  17        4.757578      4.757573
  18        7.077979      7.077997
  19        7.077979      7.077997
  20        7.117708      7.117724
  21        7.655172      7.655150
  22        7.655172      7.655150
  23        7.702485      7.702463
  24       10.265331     10.270377
  25       10.464652     10.464647
  26       10.492513     10.520750
  27       10.648479     10.588524
  28       10.668257     10.654002
 
  0.1122449E+00  0.0000000E+00  0.1122449E+00  0.3333333E-02
   1      -13.175440    -13.175433
   2      -12.829324    -12.829318
   3      -12.829324    -12.829318
   4      -12.817629    -12.817623
   5       -2.170520     -2.170509
   6       -2.170520     -2.170509
   7       -2.168947     -2.168937
   8       -1.286680     -1.286666
   9       -1.176966     -1.176951
  10       -1.176966     -1.176951
  11       -1.150948     -1.150933
  12       -1.150948     -1.150933
  13       -1.130264     -1.130249
  14       -0.751340     -0.751326
  15       -0.596549     -0.596535
  16       -0.567183     -0.567169
  17        4.804013      4.804009
  18        7.103899      7.103916
  19        7.103899      7.103916
  20        7.148758      7.148774
  21        7.681178      7.681156
  22        7.681178      7.681156
  23        7.739814      7.739793
  24       10.212915     10.214050
  25       10.418431     10.418321
  26       10.432712     10.440070
  27       10.642245     10.565441
  28       10.681966     10.683410
 
  0.1224490E+00  0.0000000E+00  0.1224490E+00  0.3333333E-02
   1      -13.171150    -13.171143
   2      -12.831170    -12.831164
   3      -12.831170    -12.831164
   4      -12.817452    -12.817446
   5       -2.161627     -2.161616
   6       -2.161627     -2.161616
   7       -2.158826     -2.158815
   8       -1.309994     -1.309979
   9       -1.181284     -1.181269
  10       -1.181284     -1.181269
  11       -1.149728     -1.149713
  12       -1.149728     -1.149713
  13       -1.126048     -1.126033
  14       -0.785372     -0.785359
  15       -0.604662     -0.604648
  16       -0.569738     -0.569724
  17        4.853890      4.853886
  18        7.131868      7.131885
  19        7.131868      7.131885
  20        7.181362      7.181377
  21        7.709428      7.709405
  22        7.709428      7.709405
  23        7.780737      7.780716
  24       10.161175     10.157951
  25       10.368338     10.368322
  26       10.441311     10.375100
  27       10.504564     10.504451
  28       10.693565     10.692691
 
  0.1326531E+00  0.0000000E+00  0.1326531E+00  0.3333333E-02
   1      -13.166523    -13.166517
   2      -12.833140    -12.833134
   3      -12.833140    -12.833134
   4      -12.817295    -12.817288
   5       -2.152327     -2.152317
   6       -2.152327     -2.152317
   7       -2.147858     -2.147847
   8       -1.334622     -1.334607
   9       -1.185886     -1.185871
  10       -1.185886     -1.185871
  11       -1.148096     -1.148081
  12       -1.148096     -1.148081
  13       -1.121477     -1.121461
  14       -0.821231     -0.821217
  15       -0.613427     -0.613413
  16       -0.572434     -0.572420
  17        4.907004      4.907000
  18        7.161764      7.161781
  19        7.161764      7.161781
  20        7.215290      7.215305
  21        7.739856      7.739834
  22        7.739856      7.739834
  23        7.825108      7.825088
  24       10.102996     10.102814
  25       10.314900     10.314879
  26       10.331249     10.320395
  27       10.460930     10.458591
  28       10.715958     10.715394
 
  0.1428571E+00  0.0000000E+00  0.1428571E+00  0.3333333E-02
   1      -13.161581    -13.161575
   2      -12.835225    -12.835219
   3      -12.835225    -12.835219
   4      -12.817169    -12.817163
   5       -2.142709     -2.142699
   6       -2.142709     -2.142699
   7       -2.136069     -2.136058
   8       -1.360449     -1.360434
   9       -1.190754     -1.190739
  10       -1.190754     -1.190739
  11       -1.146001     -1.145986
  12       -1.146001     -1.145986
  13       -1.116589     -1.116573
  14       -0.858743     -0.858729
  15       -0.622918     -0.622904
  16       -0.575364     -0.575350
  17        4.963142      4.963139
  18        7.193449      7.193466
  19        7.193449      7.193466
  20        7.250346      7.250360
  21        7.772393      7.772371
  22        7.772393      7.772371
  23        7.872712      7.872693
  24       10.047356     10.047231
  25       10.258283     10.258270
  26       10.284913     10.259719
  27       10.420996     10.407937
  28       10.738230     10.739135
 
  0.1530612E+00  0.0000000E+00  0.1530612E+00  0.3333333E-02
   1      -13.156328    -13.156322
   2      -12.837418    -12.837412
   3      -12.837418    -12.837412
   4      -12.817080    -12.817074
   5       -2.132871     -2.132860
   6       -2.132871     -2.132860
   7       -2.123463     -2.123452
   8       -1.387260     -1.387245
   9       -1.195862     -1.195847
  10       -1.195862     -1.195847
  11       -1.143373     -1.143358
  12       -1.143373     -1.143358
  13       -1.111384     -1.111369
  14       -0.897685     -0.897672
  15       -0.633120     -0.633106
  16       -0.578518     -0.578503
  17        5.022095      5.022092
  18        7.226770      7.226787
  19        7.226771      7.226787
  20        7.286371      7.286384
  21        7.806961      7.806939
  22        7.806961      7.806939
  23        7.923269      7.923251
  24        9.991103      9.991217
  25       10.198824     10.198809
  26       10.200781     10.215937
  27       10.370032     10.383283
  28       10.761750     10.761695
 
  0.1632653E+00  0.0000000E+00  0.1632653E+00  0.3333333E-02
   1      -13.150777    -13.150771
   2      -12.839706    -12.839700
   3      -12.839706    -12.839700
   4      -12.817036    -12.817030
   5       -2.122887     -2.122876
   6       -2.122887     -2.122876
   7       -2.110050     -2.110038
   8       -1.414934     -1.414919
   9       -1.201183     -1.201169
  10       -1.201183     -1.201169
  11       -1.140134     -1.140119
  12       -1.140134     -1.140119
  13       -1.105847     -1.105832
  14       -0.937850     -0.937837
  15       -0.644031     -0.644017
  16       -0.581895     -0.581881
  17        5.083660      5.083657
  18        7.261556      7.261572
  19        7.261556      7.261572
  20        7.323238      7.323251
  21        7.843480      7.843459
  22        7.843480      7.843459
  23        7.976412      7.976394
  24        9.935140      9.935104
  25       10.136883     10.136871
  26       10.140110     10.140902
  27       10.336173     10.338831
  28       10.777704     10.787174
 
  0.1734694E+00  0.0000000E+00  0.1734694E+00  0.3333333E-02
   1      -13.144939    -13.144932
   2      -12.842080    -12.842074
   3      -12.842080    -12.842074
   4      -12.817048    -12.817042
   5       -2.112855     -2.112844
   6       -2.112855     -2.112844
   7       -2.095850     -2.095838
   8       -1.443334     -1.443319
   9       -1.206692     -1.206678
  10       -1.206692     -1.206678
  11       -1.136230     -1.136215
  12       -1.136230     -1.136215
  13       -1.099999     -1.099984
  14       -0.979030     -0.979017
  15       -0.655644     -0.655630
  16       -0.585486     -0.585472
  17        5.147638      5.147635
  18        7.297614      7.297630
  19        7.297614      7.297630
  20        7.360852      7.360864
  21        7.881863      7.881841
  22        7.881863      7.881841
  23        8.031715      8.031699
  24        9.879408      9.879455
  25       10.072864     10.072850
  26       10.078801     10.075146
  27       10.304341     10.292161
  28       10.811603     10.799476
 
  0.1836735E+00  0.0000000E+00  0.1836735E+00  0.3333333E-02
   1      -13.138829    -13.138823
   2      -12.844534    -12.844528
   3      -12.844534    -12.844528
   4      -12.817122    -12.817116
   5       -2.102877     -2.102866
   6       -2.102877     -2.102866
   7       -2.080865     -2.080854
   8       -1.472245     -1.472231
   9       -1.212388     -1.212374
  10       -1.212388     -1.212374
  11       -1.131621     -1.131605
  12       -1.131621     -1.131605
  13       -1.093846     -1.093831
  14       -1.021036     -1.021023
  15       -0.667973     -0.667959
  16       -0.589315     -0.589301
  17        5.213836      5.213833
  18        7.334730      7.334746
  19        7.334730      7.334746
  20        7.399147      7.399159
  21        7.922005      7.921984
  22        7.922005      7.921984
  23        8.088694      8.088678
  24        9.824402      9.824404
  25       10.007213     10.007176
  26       10.008556     10.010033
  27       10.254099     10.248779
  28       10.827094     10.829530
 
  0.1938776E+00  0.0000000E+00  0.1938776E+00  0.3333333E-02
   1      -13.132459    -13.132453
   2      -12.847052    -12.847046
   3      -12.847052    -12.847046
   4      -12.817273    -12.817267
   5       -2.093027     -2.093016
   6       -2.093027     -2.093016
   7       -2.065117     -2.065106
   8       -1.501578     -1.501564
   9       -1.218214     -1.218199
  10       -1.218214     -1.218199
  11       -1.126208     -1.126193
  12       -1.126208     -1.126193
  13       -1.087399     -1.087384
  14       -1.063675     -1.063662
  15       -0.681009     -0.680995
  16       -0.593371     -0.593357
  17        5.282072      5.282069
  18        7.372665      7.372681
  19        7.372665      7.372681
  20        7.438070      7.438081
  21        7.963812      7.963790
  22        7.963812      7.963790
  23        8.146787      8.146772
  24        9.770368      9.770278
  25        9.940353      9.940341
  26        9.942315      9.942110
  27       10.213101     10.223758
  28       10.839255     10.829101
 
  0.2040816E+00  0.0000000E+00  0.2040816E+00  0.3333333E-02
   1      -13.125846    -13.125840
   2      -12.849628    -12.849622
   3      -12.849628    -12.849622
   4      -12.817509    -12.817503
   5       -2.083420     -2.083409
   6       -2.083420     -2.083409
   7       -2.048621     -2.048609
   8       -1.531162     -1.531147
   9       -1.224160     -1.224145
  10       -1.224160     -1.224145
  11       -1.119988     -1.119973
  12       -1.119988     -1.119973
  13       -1.106766     -1.106753
  14       -1.080667     -1.080651
  15       -0.694749     -0.694735
  16       -0.597655     -0.597640
  17        5.352167      5.352164
  18        7.411145      7.411160
  19        7.411145      7.411160
  20        7.477579      7.477588
  21        8.007169      8.007147
  22        8.007169      8.007147
  23        8.205402      8.205388
  24        9.717247      9.717257
  25        9.872866      9.872855
  26        9.873222      9.873026
  27       10.169303     10.162735
  28       10.909563     10.806657
 
  0.2142857E+00  0.0000000E+00  0.2142857E+00  0.3333333E-02
   1      -13.119001    -13.118995
   2      -12.852250    -12.852244
   3      -12.852250    -12.852244
   4      -12.817843    -12.817837
   5       -2.074124     -2.074113
   6       -2.074124     -2.074113
   7       -2.031391     -2.031380
   8       -1.560848     -1.560834
   9       -1.230198     -1.230184
  10       -1.230198     -1.230184
  11       -1.150117     -1.150104
  12       -1.112913     -1.112898
  13       -1.112913     -1.112898
  14       -1.073658     -1.073643
  15       -0.709190     -0.709175
  16       -0.602166     -0.602152
  17        5.423956      5.423953
  18        7.449868      7.449883
  19        7.449868      7.449883
  20        7.517631      7.517640
  21        8.051959      8.051938
  22        8.051959      8.051938
  23        8.263904      8.263892
  24        9.665637      9.665594
  25        9.805274      9.805266
  26        9.805357      9.805521
  27       10.122910     10.118092
  28       10.832228     10.805989
 
  0.2244898E+00  0.0000000E+00  0.2244898E+00  0.3333333E-02
   1      -13.111943    -13.111937
   2      -12.854906    -12.854900
   3      -12.854906    -12.854900
   4      -12.818283    -12.818277
   5       -2.065213     -2.065202
   6       -2.065213     -2.065202
   7       -2.013447     -2.013436
   8       -1.590496     -1.590482
   9       -1.236298     -1.236283
  10       -1.236298     -1.236283
  11       -1.193590     -1.193577
  12       -1.104955     -1.104940
  13       -1.104955     -1.104940
  14       -1.066383     -1.066368
  15       -0.724325     -0.724311
  16       -0.606906     -0.606892
  17        5.497277      5.497274
  18        7.488501      7.488515
  19        7.488501      7.488515
  20        7.558181      7.558189
  21        8.098060      8.098039
  22        8.098060      8.098039
  23        8.321636      8.321624
  24        9.615520      9.615478
  25        9.738171      9.738160
  26        9.738297      9.738361
  27       10.074926     10.073400
  28       10.817193     10.821461
 
  0.2346939E+00  0.0000000E+00  0.2346939E+00  0.3333333E-02
   1      -13.104687    -13.104681
   2      -12.857586    -12.857580
   3      -12.857586    -12.857580
   4      -12.818842    -12.818836
   5       -2.056742     -2.056730
   6       -2.056742     -2.056730
   7       -1.994807     -1.994795
   8       -1.619965     -1.619951
   9       -1.242439     -1.242425
  10       -1.242439     -1.242425
  11       -1.237011     -1.236998
  12       -1.096103     -1.096088
  13       -1.096103     -1.096088
  14       -1.058852     -1.058837
  15       -0.740151     -0.740136
  16       -0.611875     -0.611861
  17        5.571980      5.571978
  18        7.526660      7.526673
  19        7.526659      7.526674
  20        7.599171      7.599178
  21        8.145334      8.145312
  22        8.145334      8.145312
  23        8.377925      8.377915
  24        9.567062      9.567051
  25        9.672181      9.672174
  26        9.672296      9.672201
  27       10.031302     10.029315
  28       10.804098     10.785697
 
  0.2448980E+00  0.0000000E+00  0.2448980E+00  0.3333333E-02
   1      -13.097248    -13.097242
   2      -12.860282    -12.860276
   3      -12.860282    -12.860276
   4      -12.819530    -12.819524
   5       -2.048788     -2.048777
   6       -2.048788     -2.048777
   7       -1.975488     -1.975477
   8       -1.649123     -1.649109
   9       -1.280229     -1.280216
  10       -1.248603     -1.248588
  11       -1.248603     -1.248588
  12       -1.086376     -1.086361
  13       -1.086376     -1.086361
  14       -1.051076     -1.051061
  15       -0.756644     -0.756629
  16       -0.617066     -0.617051
  17        5.647927      5.647924
  18        7.563917      7.563930
  19        7.563917      7.563930
  20        7.640521      7.640527
  21        8.193636      8.193615
  22        8.193636      8.193615
  23        8.432110      8.432103
  24        9.520452      9.520453
  25        9.607966      9.607960
  26        9.607973      9.607979
  27        9.983173      9.983693
  28       10.764658     10.771266
 
  0.2551020E+00  0.0000000E+00  0.2551020E+00  0.3333333E-02
   1      -13.089646    -13.089639
   2      -12.862980    -12.862974
   3      -12.862980    -12.862974
   4      -12.820358    -12.820352
   5       -2.041384     -2.041373
   6       -2.041384     -2.041373
   7       -1.955497     -1.955486
   8       -1.677820     -1.677806
   9       -1.323090     -1.323077
  10       -1.254756     -1.254741
  11       -1.254756     -1.254741
  12       -1.075784     -1.075769
  13       -1.075784     -1.075769
  14       -1.043054     -1.043039
  15       -0.773828     -0.773814
  16       -0.622492     -0.622478
  17        5.724983      5.724980
  18        7.599809      7.599821
  19        7.599809      7.599822
  20        7.682128      7.682134
  21        8.242818      8.242797
  22        8.242818      8.242797
  23        8.483565      8.483557
  24        9.475816      9.475800
  25        9.546217      9.546211
  26        9.546221      9.546218
  27        9.937914      9.937968
  28       10.742250     10.754070
 
  0.2653061E+00  0.0000000E+00  0.2653061E+00  0.3333333E-02
   1      -13.081900    -13.081894
   2      -12.865668    -12.865662
   3      -12.865668    -12.865662
   4      -12.821340    -12.821334
   5       -2.034562     -2.034551
   6       -2.034562     -2.034551
   7       -1.934885     -1.934873
   8       -1.705977     -1.705963
   9       -1.365482     -1.365470
  10       -1.260874     -1.260860
  11       -1.260874     -1.260860
  12       -1.064363     -1.064348
  13       -1.064363     -1.064348
  14       -1.034822     -1.034807
  15       -0.791692     -0.791678
  16       -0.628145     -0.628131
  17        5.803020      5.803017
  18        7.633824      7.633836
  19        7.633824      7.633836
  20        7.723850      7.723854
  21        8.292717      8.292696
  22        8.292717      8.292697
  23        8.531695      8.531688
  24        9.433228      9.433240
  25        9.487650      9.487647
  26        9.487653      9.487695
  27        9.892660      9.892780
  28       10.711129     10.709136
 
  0.2755102E+00  0.0000000E+00  0.2755102E+00  0.3333333E-02
   1      -13.074023    -13.074017
   2      -12.868337    -12.868330
   3      -12.868337    -12.868330
   4      -12.822485    -12.822479
   5       -2.028349     -2.028337
   6       -2.028349     -2.028337
   7       -1.913658     -1.913646
   8       -1.733452     -1.733438
   9       -1.407265     -1.407252
  10       -1.266932     -1.266918
  11       -1.266932     -1.266918
  12       -1.052182     -1.052167
  13       -1.052182     -1.052167
  14       -1.026379     -1.026364
  15       -0.810198     -0.810184
  16       -0.634025     -0.634010
  17        5.881918      5.881916
  18        7.665418      7.665429
  19        7.665418      7.665429
  20        7.765502      7.765505
  21        8.343164      8.343143
  22        8.343165      8.343144
  23        8.576013      8.576008
  24        9.392805      9.392797
  25        9.432993      9.432990
  26        9.432999      9.433000
  27        9.847556      9.847598
  28       10.676317     10.676077
 
  0.2857143E+00  0.0000000E+00  0.2857143E+00  0.3333333E-02
   1      -13.066034    -13.066028
   2      -12.870972    -12.870966
   3      -12.870972    -12.870966
   4      -12.823803    -12.823797
   5       -2.022740     -2.022728
   6       -2.022740     -2.022728
   7       -1.891839     -1.891828
   8       -1.760122     -1.760108
   9       -1.448317     -1.448305
  10       -1.272907     -1.272893
  11       -1.272907     -1.272893
  12       -1.039280     -1.039266
  13       -1.039280     -1.039266
  14       -1.017737     -1.017722
  15       -0.829348     -0.829334