NaCl (band)                             
   5.60000000000000     
     1.008746    0.000000    0.000000
     0.000000    1.008746    0.000000
     0.000000    0.000000    1.008746
   Na   Cl
     4     4
Direct
  0.000000  0.000000  0.000000
  0.000000  0.500000  0.500000
  0.500000  0.000000  0.500000
  0.500000  0.500000  0.000000
  0.000000  0.000000  0.500000
  0.000000  0.500000  0.000000
  0.500000  0.000000  0.000000
  0.500000  0.500000  0.500000
 
   42   42   42
 0.38820E-03 0.11230E-03 0.73181E-04 0.22513E-03 0.12122E-02 0.62825E-02 0.27540E-01 0.87654E-01 0.18567     0.29860    
 0.41478     0.52044     0.60749     0.67677     0.72529     0.74628     0.73039     0.65853     0.50470     0.29445    
 0.14460     0.10082     0.14460     0.29445     0.50470     0.65853     0.73039     0.74628     0.72529     0.67677    
 0.60749     0.52044     0.41478     0.29860     0.18567     0.87654E-01 0.27540E-01 0.62825E-02 0.12122E-02 0.22513E-03
 0.73181E-04 0.11230E-03 0.11230E-03 0.58277E-04 0.48875E-04 0.15968E-03 0.94245E-03 0.53378E-02 0.24669E-01 0.81020E-01
 0.17588     0.28808     0.40519     0.51261     0.60126     0.67180     0.72184     0.74513     0.73348     0.67082    
 0.53508     0.34309     0.19304     0.14460     0.19304     0.34309     0.53508     0.67082     0.73348     0.74513    
 0.72184     0.67180     0.60126     0.51261     0.40519     0.28808     0.17588     0.81020E-01 0.24669E-01 0.53378E-02
 0.94245E-03 0.15968E-03 0.48875E-04 0.58277E-04 0.73181E-04 0.48875E-04 0.38865E-04 0.99306E-04 0.55890E-03 0.34511E-02
 0.17413E-01 0.61991E-01 0.14640     0.25628     0.37631     0.48881     0.58209     0.65632     0.71069     0.74033    
 0.73965     0.69931     0.60696     0.46920     0.34309     0.29445     0.34309     0.46920     0.60696     0.69931    
 0.73965     0.74033     0.71069     0.65632     0.58209     0.48881     0.37631     0.25628     0.14640     0.61991E-01
 0.17413E-01 0.34511E-02 0.55890E-03 0.99306E-04 0.38865E-04 0.48875E-04 0.22513E-03 0.15968E-03 0.99306E-04 0.13655E-03
 0.46148E-03 0.22365E-02 0.10384E-01 0.38170E-01 0.10191     0.20320     0.32646     0.44733     0.54860     0.62894    
 0.68989     0.72866     0.74206     0.72685     0.67997     0.60696     0.53508     0.50470     0.53508     0.60696    
 0.67997     0.72685     0.74206     0.72866     0.68989     0.62894     0.54860     0.44733     0.32646     0.20320    
 0.10191     0.38170E-01 0.10384E-01 0.22365E-02 0.46148E-03 0.13655E-03 0.99306E-04 0.15968E-03 0.12122E-02 0.94245E-03
 0.55890E-03 0.46148E-03 0.75943E-03 0.20549E-02 0.65987E-02 0.20833E-01 0.58627E-01 0.13658     0.25406     0.38404    
 0.49784     0.58776     0.65711     0.70635     0.73408     0.74035     0.72685     0.69931     0.67082     0.65853    
 0.67082     0.69931     0.72685     0.74035     0.73408     0.70635     0.65711     0.58776     0.49784     0.38404    
 0.25406     0.13658     0.58627E-01 0.20833E-01 0.65987E-02 0.20549E-02 0.75943E-03 0.46148E-03 0.55890E-03 0.94245E-03
 0.62825E-02 0.53378E-02 0.34511E-02 0.22365E-02 0.20549E-02 0.28752E-02 0.53750E-02 0.12066E-01 0.30443E-01 0.76850E-01
 0.16828     0.29605     0.42457     0.52953     0.60997     0.67008     0.71105     0.73408     0.74206     0.73965    
 0.73348     0.73039     0.73348     0.73965     0.74206     0.73408     0.71105     0.67008     0.60997     0.52953    
 0.42457     0.29605     0.16828     0.76850E-01 0.30443E-01 0.12066E-01 0.53750E-02 0.28752E-02 0.20549E-02 0.22365E-02
 0.34511E-02 0.53378E-02 0.27540E-01 0.24669E-01 0.17413E-01 0.10384E-01 0.65987E-02 0.53750E-02 0.58289E-02 0.84379E-02
 0.16333E-01 0.38646E-01 0.93108E-01 0.19391     0.32496     0.44833     0.54502     0.61724     0.67008     0.70635    
 0.72866     0.74033     0.74513     0.74628     0.74513     0.74033     0.72866     0.70635     0.67008     0.61724    
 0.54502     0.44833     0.32496     0.19391     0.93108E-01 0.38646E-01 0.16333E-01 0.84379E-02 0.58289E-02 0.53750E-02
 0.65987E-02 0.10384E-01 0.17413E-01 0.24669E-01 0.87654E-01 0.81020E-01 0.61991E-01 0.38170E-01 0.20833E-01 0.12066E-01
 0.84379E-02 0.77831E-02 0.10295E-01 0.19453E-01 0.45215E-01 0.10520     0.21023     0.33960     0.45624     0.54502    
 0.60997     0.65711     0.68989     0.71069     0.72184     0.72529     0.72184     0.71069     0.68989     0.65711    
 0.60997     0.54502     0.45624     0.33960     0.21023     0.10520     0.45215E-01 0.19453E-01 0.10295E-01 0.77831E-02
 0.84379E-02 0.12066E-01 0.20833E-01 0.38170E-01 0.61991E-01 0.81020E-01 0.18567     0.17588     0.14640     0.10191    
 0.58627E-01 0.30443E-01 0.16333E-01 0.10295E-01 0.87905E-02 0.11367E-01 0.21478E-01 0.49294E-01 0.11150     0.21582    
 0.33960     0.44833     0.52953     0.58776     0.62894     0.65632     0.67180     0.67677     0.67180     0.65632    
 0.62894     0.58776     0.52953     0.44833     0.33960     0.21582     0.11150     0.49294E-01 0.21478E-01 0.11367E-01
 0.87905E-02 0.10295E-01 0.16333E-01 0.30443E-01 0.58627E-01 0.10191     0.14640     0.17588     0.29860     0.28808    
 0.25628     0.20320     0.13658     0.76850E-01 0.38646E-01 0.19453E-01 0.11367E-01 0.92642E-02 0.11865E-01 0.22396E-01
 0.50637E-01 0.11150     0.21023     0.32496     0.42457     0.49784     0.54860     0.58209     0.60126     0.60749    
 0.60126     0.58209     0.54860     0.49784     0.42457     0.32496     0.21023     0.11150     0.50637E-01 0.22396E-01
 0.11865E-01 0.92642E-02 0.11367E-01 0.19453E-01 0.38646E-01 0.76850E-01 0.13658     0.20320     0.25628     0.28808    
 0.41478     0.40519     0.37631     0.32646     0.25406     0.16828     0.93108E-01 0.45215E-01 0.21478E-01 0.11865E-01
 0.94086E-02 0.11989E-01 0.22396E-01 0.49294E-01 0.10520     0.19391     0.29605     0.38404     0.44733     0.48881    
 0.51261     0.52044     0.51261     0.48881     0.44733     0.38404     0.29605     0.19391     0.10520     0.49294E-01
 0.22396E-01 0.11989E-01 0.94086E-02 0.11865E-01 0.21478E-01 0.45215E-01 0.93108E-01 0.16828     0.25406     0.32646    
 0.37631     0.40519     0.52044     0.51261     0.48881     0.44733     0.38404     0.29605     0.19391     0.10520    
 0.49294E-01 0.22396E-01 0.11989E-01 0.94086E-02 0.11865E-01 0.21478E-01 0.45215E-01 0.93108E-01 0.16828     0.25406    
 0.32646     0.37631     0.40519     0.41478     0.40519     0.37631     0.32646     0.25406     0.16828     0.93108E-01
 0.45215E-01 0.21478E-01 0.11865E-01 0.94086E-02 0.11989E-01 0.22396E-01 0.49294E-01 0.10520     0.19391     0.29605    
 0.38404     0.44733     0.48881     0.51261     0.60749     0.60126     0.58209     0.54860     0.49784     0.42457    
 0.32496     0.21023     0.11150     0.50637E-01 0.22396E-01 0.11865E-01 0.92642E-02 0.11367E-01 0.19453E-01 0.38646E-01
 0.76850E-01 0.13658     0.20320     0.25628     0.28808     0.29860     0.28808     0.25628     0.20320     0.13658    
 0.76850E-01 0.38646E-01 0.19453E-01 0.11367E-01 0.92642E-02 0.11865E-01 0.22396E-01 0.50637E-01 0.11150     0.21023    
 0.32496     0.42457     0.49784     0.54860     0.58209     0.60126     0.67677     0.67180     0.65632     0.62894    
 0.58776     0.52953     0.44833     0.33960     0.21582     0.11150     0.49294E-01 0.21478E-01 0.11367E-01 0.87905E-02
 0.10295E-01 0.16333E-01 0.30443E-01 0.58627E-01 0.10191     0.14640     0.17588     0.18567     0.17588     0.14640    
 0.10191     0.58627E-01 0.30443E-01 0.16333E-01 0.10295E-01 0.87905E-02 0.11367E-01 0.21478E-01 0.49294E-01 0.11150    
 0.21582     0.33960     0.44833     0.52953     0.58776     0.62894     0.65632     0.67180     0.72529     0.72184    
 0.71069     0.68989     0.65711     0.60997     0.54502     0.45624     0.33960     0.21023     0.10520     0.45215E-01
 0.19453E-01 0.10295E-01 0.77831E-02 0.84379E-02 0.12066E-01 0.20833E-01 0.38170E-01 0.61991E-01 0.81020E-01 0.87654E-01
 0.81020E-01 0.61991E-01 0.38170E-01 0.20833E-01 0.12066E-01 0.84379E-02 0.77831E-02 0.10295E-01 0.19453E-01 0.45215E-01
 0.10520     0.21023     0.33960     0.45624     0.54502     0.60997     0.65711     0.68989     0.71069     0.72184    
 0.74628     0.74513     0.74033     0.72866     0.70635     0.67008     0.61724     0.54502     0.44833     0.32496    
 0.19391     0.93108E-01 0.38646E-01 0.16333E-01 0.84379E-02 0.58289E-02 0.53750E-02 0.65987E-02 0.10384E-01 0.17413E-01
 0.24669E-01 0.27540E-01 0.24669E-01 0.17413E-01 0.10384E-01 0.65987E-02 0.53750E-02 0.58289E-02 0.84379E-02 0.16333E-01
 0.38646E-01 0.93108E-01 0.19391     0.32496     0.44833     0.54502     0.61724     0.67008     0.70635     0.72866    
 0.74033     0.74513     0.73039     0.73348     0.73965     0.74206     0.73408     0.71105     0.67008     0.60997    
 0.52953     0.42457     0.29605     0.16828     0.76850E-01 0.30443E-01 0.12066E-01 0.53750E-02 0.28752E-02 0.20549E-02
 0.22365E-02 0.34511E-02 0.53378E-02 0.62825E-02 0.53378E-02 0.34511E-02 0.22365E-02 0.20549E-02 0.28752E-02 0.53750E-02
 0.12066E-01 0.30443E-01 0.76850E-01 0.16828     0.29605     0.42457     0.52953     0.60997     0.67008     0.71105    
 0.73408     0.74206     0.73965     0.73348     0.65853     0.67082     0.69931     0.72685     0.74035     0.73408    
 0.70635     0.65711     0.58776     0.49784     0.38404     0.25406     0.13658     0.58627E-01 0.20833E-01 0.65987E-02
 0.20549E-02 0.75943E-03 0.46148E-03 0.55890E-03 0.94245E-03 0.12122E-02 0.94245E-03 0.55890E-03 0.46148E-03 0.75943E-03
 0.20549E-02 0.65987E-02 0.20833E-01 0.58627E-01 0.13658     0.25406     0.38404     0.49784     0.58776     0.65711    
 0.70635     0.73408     0.74035     0.72685     0.69931     0.67082     0.50470     0.53508     0.60696     0.67997    
 0.72685     0.74206     0.72866     0.68989     0.62894     0.54860     0.44733     0.32646     0.20320     0.10191    
 0.38170E-01 0.10384E-01 0.22365E-02 0.46148E-03 0.13655E-03 0.99306E-04 0.15968E-03 0.22513E-03 0.15968E-03 0.99306E-04
 0.13655E-03 0.46148E-03 0.22365E-02 0.10384E-01 0.38170E-01 0.10191     0.20320     0.32646     0.44733     0.54860    
 0.62894     0.68989     0.72866     0.74206     0.72685     0.67997     0.60696     0.53508     0.29445     0.34309    
 0.46920     0.60696     0.69931     0.73965     0.74033     0.71069     0.65632     0.58209     0.48881     0.37631    
 0.25628     0.14640     0.61991E-01 0.17413E-01 0.34511E-02 0.55890E-03 0.99306E-04 0.38865E-04 0.48875E-04 0.73181E-04
 0.48875E-04 0.38865E-04 0.99306E-04 0.55890E-03 0.34511E-02 0.17413E-01 0.61991E-01 0.14640     0.25628     0.37631    
 0.48881     0.58209     0.65632     0.71069     0.74033     0.73965     0.69931     0.60696     0.46920     0.34309    
 0.14460     0.19304     0.34309     0.53508     0.67082     0.73348     0.74513     0.72184     0.67180     0.60126    
 0.51261     0.40519     0.28808     0.17588     0.81020E-01 0.24669E-01 0.53378E-02 0.94245E-03 0.15968E-03 0.48875E-04
 0.58277E-04 0.11230E-03 0.58277E-04 0.48875E-04 0.15968E-03 0.94245E-03 0.53378E-02 0.24669E-01 0.81020E-01 0.17588    
 0.28808     0.40519     0.51261     0.60126     0.67180     0.72184     0.74513     0.73348     0.67082     0.53508    
 0.34309     0.19304     0.10082     0.14460     0.29445     0.50470     0.65853     0.73039     0.74628     0.72529    
 0.67677     0.60749     0.52044     0.41478     0.29860     0.18567     0.87654E-01 0.27540E-01 0.62825E-02 0.12122E-02
 0.22513E-03 0.73181E-04 0.11230E-03 0.38820E-03 0.11230E-03 0.73181E-04 0.22513E-03 0.12122E-02 0.62825E-02 0.27540E-01
 0.87654E-01 0.18567     0.29860     0.41478     0.52044     0.60749     0.67677     0.72529     0.74628     0.73039    
 0.65853     0.50470     0.29445     0.14460     0.14460     0.19304     0.34309     0.53508     0.67082     0.73348    
 0.74513     0.72184     0.67180     0.60126     0.51261     0.40519     0.28808     0.17588     0.81020E-01 0.24669E-01
 0.53378E-02 0.94245E-03 0.15968E-03 0.48875E-04 0.58277E-04 0.11230E-03 0.58277E-04 0.48875E-04 0.15968E-03 0.94245E-03
 0.53378E-02 0.24669E-01 0.81020E-01 0.17588     0.28808     0.40519     0.51261     0.60126     0.67180     0.72184    
 0.74513     0.73348     0.67082     0.53508     0.34309     0.19304     0.29445     0.34309     0.46920     0.60696    
 0.69931     0.73965     0.74033     0.71069     0.65632     0.58209     0.48881     0.37631     0.25628     0.14640    
 0.61991E-01 0.17413E-01 0.34511E-02 0.55890E-03 0.99306E-04 0.38865E-04 0.48875E-04 0.73181E-04 0.48875E-04 0.38865E-04
 0.99306E-04 0.55890E-03 0.34511E-02 0.17413E-01 0.61991E-01 0.14640     0.25628     0.37631     0.48881     0.58209    
 0.65632     0.71069     0.74033     0.73965     0.69931     0.60696     0.46920     0.34309     0.50470     0.53508    
 0.60696     0.67997     0.72685     0.74206     0.72866     0.68989     0.62894     0.54860     0.44733     0.32646    
 0.20320     0.10191     0.38170E-01 0.10384E-01 0.22365E-02 0.46148E-03 0.13655E-03 0.99306E-04 0.15968E-03 0.22513E-03
 0.15968E-03 0.99306E-04 0.13655E-03 0.46148E-03 0.22365E-02 0.10384E-01 0.38170E-01 0.10191     0.20320     0.32646    
 0.44733     0.54860     0.62894     0.68989     0.72866     0.74206     0.72685     0.67997     0.60696     0.53508    
 0.65853     0.67082     0.69931     0.72685     0.74035     0.73408     0.70635     0.65711     0.58776     0.49784    
 0.38404     0.25406     0.13658     0.58627E-01 0.20833E-01 0.65987E-02 0.20549E-02 0.75943E-03 0.46148E-03 0.55890E-03
 0.94245E-03 0.12122E-02 0.94245E-03 0.55890E-03 0.46148E-03 0.75943E-03 0.20549E-02 0.65987E-02 0.20833E-01 0.58627E-01
 0.13658     0.25406     0.38404     0.49784     0.58776     0.65711     0.70635     0.73408     0.74035     0.72685    
 0.69931     0.67082     0.73039     0.73348     0.73965     0.74206     0.73408     0.71105     0.67008     0.60997    
 0.52953     0.42457     0.29605     0.16828     0.76850E-01 0.30443E-01 0.12066E-01 0.53750E-02 0.28752E-02 0.20549E-02
 0.22365E-02 0.34511E-02 0.53378E-02 0.62825E-02 0.53378E-02 0.34511E-02 0.22365E-02 0.20549E-02 0.28752E-02 0.53750E-02
 0.12066E-01 0.30443E-01 0.76850E-01 0.16828     0.29605     0.42457     0.52953     0.60997     0.67008     0.71105    
 0.73408     0.74206     0.73965     0.73348     0.74628     0.74513     0.74033     0.72866     0.70635     0.67008    
 0.61724     0.54502     0.44833     0.32496     0.19391     0.93108E-01 0.38646E-01 0.16333E-01 0.84379E-02 0.58289E-02
 0.53750E-02 0.65987E-02 0.10384E-01 0.17413E-01 0.24669E-01 0.27540E-01 0.24669E-01 0.17413E-01 0.10384E-01 0.65987E-02
 0.53750E-02 0.58289E-02 0.84379E-02 0.16333E-01 0.38646E-01 0.93108E-01 0.19391     0.32496     0.44833     0.54502    
 0.61724     0.67008     0.70635     0.72866     0.74033     0.74513     0.72529     0.72184     0.71069     0.68989    
 0.65711     0.60997     0.54502     0.45624     0.33960     0.21023     0.10520     0.45215E-01 0.19453E-01 0.10295E-01
 0.77831E-02 0.84379E-02 0.12066E-01 0.20833E-01 0.38170E-01 0.61991E-01 0.81020E-01 0.87654E-01 0.81020E-01 0.61991E-01
 0.38170E-01 0.20833E-01 0.12066E-01 0.84379E-02 0.77831E-02 0.10295E-01 0.19453E-01 0.45215E-01 0.10520     0.21023    
 0.33960     0.45624     0.54502     0.60997     0.65711     0.68989     0.71069     0.72184     0.67677     0.67180    
 0.65632     0.62894     0.58776     0.52953     0.44833     0.33960     0.21582     0.11150     0.49294E-01 0.21478E-01
 0.11367E-01 0.87905E-02 0.10295E-01 0.16333E-01 0.30443E-01 0.58627E-01 0.10191     0.14640     0.17588     0.18567    
 0.17588     0.14640     0.10191     0.58627E-01 0.30443E-01 0.16333E-01 0.10295E-01 0.87905E-02 0.11367E-01 0.21478E-01
 0.49294E-01 0.11150     0.21582     0.33960     0.44833     0.52953     0.58776     0.62894     0.65632     0.67180    
 0.60749     0.60126     0.58209     0.54860     0.49784     0.42457     0.32496     0.21023     0.11150     0.50637E-01
 0.22396E-01 0.11865E-01 0.92642E-02 0.11367E-01 0.19453E-01 0.38646E-01 0.76850E-01 0.13658     0.20320     0.25628    
 0.28808     0.29860     0.28808     0.25628     0.20320     0.13658     0.76850E-01 0.38646E-01 0.19453E-01 0.11367E-01
 0.92642E-02 0.11865E-01 0.22396E-01 0.50637E-01 0.11150     0.21023     0.32496     0.42457     0.49784     0.54860    
 0.58209     0.60126     0.52044     0.51261     0.48881     0.44733     0.38404     0.29605     0.19391     0.10520    
 0.49294E-01 0.22396E-01 0.11989E-01 0.94086E-02 0.11865E-01 0.21478E-01 0.45215E-01 0.93108E-01 0.16828     0.25406    
 0.32646     0.37631     0.40519     0.41478     0.40519     0.37631     0.32646     0.25406     0.16828     0.93108E-01
 0.45215E-01 0.21478E-01 0.11865E-01 0.94086E-02 0.11989E-01 0.22396E-01 0.49294E-01 0.10520     0.19391     0.29605    
 0.38404     0.44733     0.48881     0.51261     0.41478     0.40519     0.37631     0.32646     0.25406     0.16828    
 0.93108E-01 0.45215E-01 0.21478E-01 0.11865E-01 0.94086E-02 0.11989E-01 0.22396E-01 0.49294E-01 0.10520     0.19391    
 0.29605     0.38404     0.44733     0.48881     0.51261     0.52044     0.51261     0.48881     0.44733     0.38404    
 0.29605     0.19391     0.10520     0.49294E-01 0.22396E-01 0.11989E-01 0.94086E-02 0.11865E-01 0.21478E-01 0.45215E-01
 0.93108E-01 0.16828     0.25406     0.32646     0.37631     0.40519     0.29860     0.28808     0.25628     0.20320    
 0.13658     0.76850E-01 0.38646E-01 0.19453E-01 0.11367E-01 0.92642E-02 0.11865E-01 0.22396E-01 0.50637E-01 0.11150    
 0.21023     0.32496     0.42457     0.49784     0.54860     0.58209     0.60126     0.60749     0.60126     0.58209    
 0.54860     0.49784     0.42457     0.32496     0.21023     0.11150     0.50637E-01 0.22396E-01 0.11865E-01 0.92642E-02
 0.11367E-01 0.19453E-01 0.38646E-01 0.76850E-01 0.13658     0.20320     0.25628     0.28808     0.18567     0.17588    
 0.14640     0.10191     0.58627E-01 0.30443E-01 0.16333E-01 0.10295E-01 0.87905E-02 0.11367E-01 0.21478E-01 0.49294E-01
 0.11150     0.21582     0.33960     0.44833     0.52953     0.58776     0.62894     0.65632     0.67180     0.67677    
 0.67180     0.65632     0.62894     0.58776     0.52953     0.44833     0.33960     0.21582     0.11150     0.49294E-01
 0.21478E-01 0.11367E-01 0.87905E-02 0.10295E-01 0.16333E-01 0.30443E-01 0.58627E-01 0.10191     0.14640     0.17588    
 0.87654E-01 0.81020E-01 0.61991E-01 0.38170E-01 0.20833E-01 0.12066E-01 0.84379E-02 0.77831E-02 0.10295E-01 0.19453E-01
 0.45215E-01 0.10520     0.21023     0.33960     0.45624     0.54502     0.60997     0.65711     0.68989     0.71069    
 0.72184     0.72529     0.72184     0.71069     0.68989     0.65711     0.60997     0.54502     0.45624     0.33960    
 0.21023     0.10520     0.45215E-01 0.19453E-01 0.10295E-01 0.77831E-02 0.84379E-02 0.12066E-01 0.20833E-01 0.38170E-01
 0.61991E-01 0.81020E-01 0.27540E-01 0.24669E-01 0.17413E-01 0.10384E-01 0.65987E-02 0.53750E-02 0.58289E-02 0.84379E-02
 0.16333E-01 0.38646E-01 0.93108E-01 0.19391     0.32496     0.44833     0.54502     0.61724     0.67008     0.70635    
 0.72866     0.74033     0.74513     0.74628     0.74513     0.74033     0.72866     0.70635     0.67008     0.61724    
 0.54502     0.44833     0.32496     0.19391     0.93108E-01 0.38646E-01 0.16333E-01 0.84379E-02 0.58289E-02 0.53750E-02
 0.65987E-02 0.10384E-01 0.17413E-01 0.24669E-01 0.62825E-02 0.53378E-02 0.34511E-02 0.22365E-02 0.20549E-02 0.28752E-02
 0.53750E-02 0.12066E-01 0.30443E-01 0.76850E-01 0.16828     0.29605     0.42457     0.52953     0.60997     0.67008    
 0.71105     0.73408     0.74206     0.73965     0.73348     0.73039     0.73348     0.73965     0.74206     0.73408    
 0.71105     0.67008     0.60997     0.52953     0.42457     0.29605     0.16828     0.76850E-01 0.30443E-01 0.12066E-01
 0.53750E-02 0.28752E-02 0.20549E-02 0.22365E-02 0.34511E-02 0.53378E-02 0.12122E-02 0.94245E-03 0.55890E-03 0.46148E-03
 0.75943E-03 0.20549E-02 0.65987E-02 0.20833E-01 0.58627E-01 0.13658     0.25406     0.38404     0.49784     0.58776    
 0.65711     0.70635     0.73408     0.74035     0.72685     0.69931     0.67082     0.65853     0.67082     0.69931    
 0.72685     0.74035     0.73408     0.70635     0.65711     0.58776     0.49784     0.38404     0.25406     0.13658    
 0.58627E-01 0.20833E-01 0.65987E-02 0.20549E-02 0.75943E-03 0.46148E-03 0.55890E-03 0.94245E-03 0.22513E-03 0.15968E-03
 0.99306E-04 0.13655E-03 0.46148E-03 0.22365E-02 0.10384E-01 0.38170E-01 0.10191     0.20320     0.32646     0.44733    
 0.54860     0.62894     0.68989     0.72866     0.74206     0.72685     0.67997     0.60696     0.53508     0.50470    
 0.53508     0.60696     0.67997     0.72685     0.74206     0.72866     0.68989     0.62894     0.54860     0.44733    
 0.32646     0.20320     0.10191     0.38170E-01 0.10384E-01 0.22365E-02 0.46148E-03 0.13655E-03 0.99306E-04 0.15968E-03
 0.73181E-04 0.48875E-04 0.38865E-04 0.99306E-04 0.55890E-03 0.34511E-02 0.17413E-01 0.61991E-01 0.14640     0.25628    
 0.37631     0.48881     0.58209     0.65632     0.71069     0.74033     0.73965     0.69931     0.60696     0.46920    
 0.34309     0.29445     0.34309     0.46920     0.60696     0.69931     0.73965     0.74033     0.71069     0.65632    
 0.58209     0.48881     0.37631     0.25628     0.14640     0.61991E-01 0.17413E-01 0.34511E-02 0.55890E-03 0.99306E-04
 0.38865E-04 0.48875E-04 0.11230E-03 0.58277E-04 0.48875E-04 0.15968E-03 0.94245E-03 0.53378E-02 0.24669E-01 0.81020E-01
 0.17588     0.28808     0.40519     0.51261     0.60126     0.67180     0.72184     0.74513     0.73348     0.67082    
 0.53508     0.34309     0.19304     0.14460     0.19304     0.34309     0.53508     0.67082     0.73348     0.74513    
 0.72184     0.67180     0.60126     0.51261     0.40519     0.28808     0.17588     0.81020E-01 0.24669E-01 0.53378E-02
 0.94245E-03 0.15968E-03 0.48875E-04 0.58277E-04 0.11230E-03 0.58277E-04 0.48875E-04 0.15968E-03 0.94245E-03 0.53378E-02
 0.24669E-01 0.81020E-01 0.17588     0.28808     0.40519     0.51261     0.60126     0.67180     0.72184     0.74513    
 0.73348     0.67082     0.53508     0.34309     0.19304     0.14460     0.19304     0.34309     0.53508     0.67082    
 0.73348     0.74513     0.72184     0.67180     0.60126     0.51261     0.40519     0.28808     0.17588     0.81020E-01
 0.24669E-01 0.53378E-02 0.94245E-03 0.15968E-03 0.48875E-04 0.58277E-04 0.58277E-04 0.38972E-04 0.37773E-04 0.12538E-03
 0.77368E-03 0.46407E-02 0.22270E-01 0.74984E-01 0.16650     0.27771     0.39559     0.50473     0.59498     0.66677    
 0.71827     0.74374     0.73600     0.68157     0.56200     0.38875     0.24361     0.19304     0.24361     0.38875    
 0.56200     0.68157     0.73600     0.74374     0.71827     0.66677     0.59498     0.50473     0.39559     0.27771    
 0.16650     0.74984E-01 0.22270E-01 0.46407E-02 0.77368E-03 0.12538E-03 0.37773E-04 0.38972E-04 0.48875E-04 0.37773E-04
 0.34842E-04 0.91283E-04 0.51232E-03 0.31780E-02 0.16105E-01 0.57763E-01 0.13855     0.24660     0.36681     0.48080    
 0.57568     0.65111     0.70679     0.73833     0.74078     0.70642     0.62537     0.50339     0.38875     0.34309    
 0.38875     0.50339     0.62537     0.70642     0.74078     0.73833     0.70679     0.65111     0.57568     0.48080    
 0.36681     0.24660     0.13855     0.57763E-01 0.16105E-01 0.31780E-02 0.51232E-03 0.91283E-04 0.34842E-04 0.37773E-04
 0.15968E-03 0.12538E-03 0.91283E-04 0.13479E-03 0.45720E-03 0.21783E-02 0.99263E-02 0.36107E-01 0.96774E-01 0.19527    
 0.31753     0.43923     0.54196     0.62345     0.68551     0.72581     0.74150     0.73005     0.68945     0.62537    
 0.56200     0.53508     0.56200     0.62537     0.68945     0.73005     0.74150     0.72581     0.68551     0.62345    
 0.54196     0.43923     0.31753     0.19527     0.96774E-01 0.36107E-01 0.99263E-02 0.21783E-02 0.45720E-03 0.13479E-03
 0.91283E-04 0.12538E-03 0.94245E-03 0.77368E-03 0.51232E-03 0.45720E-03 0.76923E-03 0.20591E-02 0.64719E-02 0.20067E-01
 0.56123E-01 0.13136     0.24658     0.37617     0.49095     0.58192     0.65219     0.70259     0.73193     0.74042    
 0.73005     0.70642     0.68157     0.67082     0.68157     0.70642     0.73005     0.74042     0.73193     0.70259    
 0.65219     0.58192     0.49095     0.37617     0.24658     0.13136     0.56123E-01 0.20067E-01 0.64719E-02 0.20591E-02
 0.76923E-03 0.45720E-03 0.51232E-03 0.77368E-03 0.53378E-02 0.46407E-02 0.31780E-02 0.21783E-02 0.20591E-02 0.28884E-02
 0.53358E-02 0.11791E-01 0.29436E-01 0.74162E-01 0.16314     0.28916     0.41762     0.52335     0.60456     0.66548    
 0.70753     0.73193     0.74150     0.74078     0.73600     0.73348     0.73600     0.74078     0.74150     0.73193    
 0.70753     0.66548     0.60456     0.52335     0.41762     0.28916     0.16314     0.74162E-01 0.29436E-01 0.11791E-01
 0.53358E-02 0.28884E-02 0.20591E-02 0.21783E-02 0.31780E-02 0.46407E-02 0.24669E-01 0.22270E-01 0.16105E-01 0.99263E-02
 0.64719E-02 0.53358E-02 0.57889E-02 0.83173E-02 0.15944E-01 0.37499E-01 0.90333E-01 0.18895     0.31862     0.44198    
 0.53919     0.61197     0.66548     0.70259     0.72581     0.73833     0.74374     0.74513     0.74374     0.73833    
 0.72581     0.70259     0.66548     0.61197     0.53919     0.44198     0.31862     0.18895     0.90333E-01 0.37499E-01
 0.15944E-01 0.83173E-02 0.57889E-02 0.53358E-02 0.64719E-02 0.99263E-02 0.16105E-01 0.22270E-01 0.81020E-01 0.74984E-01
 0.57763E-01 0.36107E-01 0.20067E-01 0.11791E-01 0.83173E-02 0.76864E-02 0.10123E-01 0.19008E-01 0.44020E-01 0.10247    
 0.20554     0.33365     0.45010     0.53919     0.60456     0.65219     0.68551     0.70679     0.71827     0.72184    
 0.71827     0.70679     0.68551     0.65219     0.60456     0.53919     0.45010     0.33365     0.20554     0.10247    
 0.44020E-01 0.19008E-01 0.10123E-01 0.76864E-02 0.83173E-02 0.11791E-01 0.20067E-01 0.36107E-01 0.57763E-01 0.74984E-01
 0.17588     0.16650     0.13855     0.96774E-01 0.56123E-01 0.29436E-01 0.15944E-01 0.10123E-01 0.86673E-02 0.11181E-01
 0.21036E-01 0.48143E-01 0.10889     0.21126     0.33365     0.44198     0.52335     0.58192     0.62345     0.65111    
 0.66677     0.67180     0.66677     0.65111     0.62345     0.58192     0.52335     0.44198     0.33365     0.21126    
 0.10889     0.48143E-01 0.21036E-01 0.11181E-01 0.86673E-02 0.10123E-01 0.15944E-01 0.29436E-01 0.56123E-01 0.96774E-01
 0.13855     0.16650     0.28808     0.27771     0.24660     0.19527     0.13136     0.74162E-01 0.37499E-01 0.19008E-01
 0.11181E-01 0.91414E-02 0.11691E-01 0.21982E-01 0.49524E-01 0.10889     0.20554     0.31862     0.41762     0.49095    
 0.54196     0.57568     0.59498     0.60126     0.59498     0.57568     0.54196     0.49095     0.41762     0.31862    
 0.20554     0.10889     0.49524E-01 0.21982E-01 0.11691E-01 0.91414E-02 0.11181E-01 0.19008E-01 0.37499E-01 0.74162E-01
 0.13136     0.19527     0.24660     0.27771     0.40519     0.39559     0.36681     0.31753     0.24658     0.16314    
 0.90333E-01 0.44020E-01 0.21036E-01 0.11691E-01 0.92968E-02 0.11825E-01 0.21982E-01 0.48143E-01 0.10247     0.18895    
 0.28916     0.37617     0.43923     0.48080     0.50473     0.51261     0.50473     0.48080     0.43923     0.37617    
 0.28916     0.18895     0.10247     0.48143E-01 0.21982E-01 0.11825E-01 0.92968E-02 0.11691E-01 0.21036E-01 0.44020E-01
 0.90333E-01 0.16314     0.24658     0.31753     0.36681     0.39559     0.51261     0.50473     0.48080     0.43923    
 0.37617     0.28916     0.18895     0.10247     0.48143E-01 0.21982E-01 0.11825E-01 0.92968E-02 0.11691E-01 0.21036E-01
 0.44020E-01 0.90333E-01 0.16314     0.24658     0.31753     0.36681     0.39559     0.40519     0.39559     0.36681    
 0.31753     0.24658     0.16314     0.90333E-01 0.44020E-01 0.21036E-01 0.11691E-01 0.92968E-02 0.11825E-01 0.21982E-01
 0.48143E-01 0.10247     0.18895     0.28916     0.37617     0.43923     0.48080     0.50473     0.60126     0.59498    
 0.57568     0.54196     0.49095     0.41762     0.31862     0.20554     0.10889     0.49524E-01 0.21982E-01 0.11691E-01
 0.91414E-02 0.11181E-01 0.19008E-01 0.37499E-01 0.74162E-01 0.13136     0.19527     0.24660     0.27771     0.28808    
 0.27771     0.24660     0.19527     0.13136     0.74162E-01 0.37499E-01 0.19008E-01 0.11181E-01 0.91414E-02 0.11691E-01
 0.21982E-01 0.49524E-01 0.10889     0.20554     0.31862     0.41762     0.49095     0.54196     0.57568     0.59498    
 0.67180     0.66677     0.65111     0.62345     0.58192     0.52335     0.44198     0.33365     0.21126     0.10889    
 0.48143E-01 0.21036E-01 0.11181E-01 0.86673E-02 0.10123E-01 0.15944E-01 0.29436E-01 0.56123E-01 0.96774E-01 0.13855    
 0.16650     0.17588     0.16650     0.13855     0.96774E-01 0.56123E-01 0.29436E-01 0.15944E-01 0.10123E-01 0.86673E-02
 0.11181E-01 0.21036E-01 0.48143E-01 0.10889     0.21126     0.33365     0.44198     0.52335     0.58192     0.62345    
 0.65111     0.66677     0.72184     0.71827     0.70679     0.68551     0.65219     0.60456     0.53919     0.45010    
 0.33365     0.20554     0.10247     0.44020E-01 0.19008E-01 0.10123E-01 0.76864E-02 0.83173E-02 0.11791E-01 0.20067E-01
 0.36107E-01 0.57763E-01 0.74984E-01 0.81020E-01 0.74984E-01 0.57763E-01 0.36107E-01 0.20067E-01 0.11791E-01 0.83173E-02
 0.76864E-02 0.10123E-01 0.19008E-01 0.44020E-01 0.10247     0.20554     0.33365     0.45010     0.53919     0.60456    
 0.65219     0.68551     0.70679     0.71827     0.74513     0.74374     0.73833     0.72581     0.70259     0.66548    
 0.61197     0.53919     0.44198     0.31862     0.18895     0.90333E-01 0.37499E-01 0.15944E-01 0.83173E-02 0.57889E-02
 0.53358E-02 0.64719E-02 0.99263E-02 0.16105E-01 0.22270E-01 0.24669E-01 0.22270E-01 0.16105E-01 0.99263E-02 0.64719E-02
 0.53358E-02 0.57889E-02 0.83173E-02 0.15944E-01 0.37499E-01 0.90333E-01 0.18895     0.31862     0.44198     0.53919    