  12  12   1   0
  0.1380445E+02  0.5492037E-09  0.5492037E-09  0.5492037E-09  0.5000000E-15
  1.000000000000000E-004
  CAR 
 Fluorite (band)                         
     55.86739778    -36.31775941  301      0.90199780      1.00000000
    -36.318  0.0000E+00  0.0000E+00  0.0000E+00  0.0000E+00
    -36.010  0.0000E+00  0.0000E+00  0.0000E+00  0.0000E+00
    -35.703  0.1343E+00  0.1334E+00  0.4128E-01  0.4099E-01
    -35.396  0.1288E+02  0.1288E+02  0.4000E+01  0.4000E+01
    -35.089  0.0000E+00  0.0000E+00  0.4000E+01  0.4000E+01
    -34.781  0.0000E+00  0.0000E+00  0.4000E+01  0.4000E+01
    -34.474  0.0000E+00  0.0000E+00  0.4000E+01  0.4000E+01
    -34.167  0.0000E+00  0.0000E+00  0.4000E+01  0.4000E+01
    -33.859  0.0000E+00  0.0000E+00  0.4000E+01  0.4000E+01
    -33.552  0.0000E+00  0.0000E+00  0.4000E+01  0.4000E+01
    -33.245  0.0000E+00  0.0000E+00  0.4000E+01  0.4000E+01
    -32.938  0.0000E+00  0.0000E+00  0.4000E+01  0.4000E+01
    -32.630  0.0000E+00  0.0000E+00  0.4000E+01  0.4000E+01
    -32.323  0.0000E+00  0.0000E+00  0.4000E+01  0.4000E+01
    -32.016  0.0000E+00  0.0000E+00  0.4000E+01  0.4000E+01
    -31.709  0.0000E+00  0.0000E+00  0.4000E+01  0.4000E+01
    -31.401  0.0000E+00  0.0000E+00  0.4000E+01  0.4000E+01
    -31.094  0.0000E+00  0.0000E+00  0.4000E+01  0.4000E+01
    -30.787  0.0000E+00  0.0000E+00  0.4000E+01  0.4000E+01
    -30.479  0.0000E+00  0.0000E+00  0.4000E+01  0.4000E+01
    -30.172  0.0000E+00  0.0000E+00  0.4000E+01  0.4000E+01
    -29.865  0.0000E+00  0.0000E+00  0.4000E+01  0.4000E+01
    -29.558  0.0000E+00  0.0000E+00  0.4000E+01  0.4000E+01
    -29.250  0.0000E+00  0.0000E+00  0.4000E+01  0.4000E+01
    -28.943  0.0000E+00  0.0000E+00  0.4000E+01  0.4000E+01
    -28.636  0.0000E+00  0.0000E+00  0.4000E+01  0.4000E+01
    -28.328  0.0000E+00  0.0000E+00  0.4000E+01  0.4000E+01
    -28.021  0.0000E+00  0.0000E+00  0.4000E+01  0.4000E+01
    -27.714  0.0000E+00  0.0000E+00  0.4000E+01  0.4000E+01
    -27.407  0.0000E+00  0.0000E+00  0.4000E+01  0.4000E+01
    -27.099  0.0000E+00  0.0000E+00  0.4000E+01  0.4000E+01
    -26.792  0.0000E+00  0.0000E+00  0.4000E+01  0.4000E+01
    -26.485  0.0000E+00  0.0000E+00  0.4000E+01  0.4000E+01
    -26.177  0.0000E+00  0.0000E+00  0.4000E+01  0.4000E+01
    -25.870  0.0000E+00  0.0000E+00  0.4000E+01  0.4000E+01
    -25.563  0.0000E+00  0.0000E+00  0.4000E+01  0.4000E+01
    -25.256  0.0000E+00  0.0000E+00  0.4000E+01  0.4000E+01
    -24.948  0.0000E+00  0.0000E+00  0.4000E+01  0.4000E+01
    -24.641  0.0000E+00  0.0000E+00  0.4000E+01  0.4000E+01
    -24.334  0.0000E+00  0.0000E+00  0.4000E+01  0.4000E+01
    -24.026  0.0000E+00  0.0000E+00  0.4000E+01  0.4000E+01
    -23.719  0.0000E+00  0.0000E+00  0.4000E+01  0.4000E+01
    -23.412  0.0000E+00  0.0000E+00  0.4000E+01  0.4000E+01
    -23.105  0.0000E+00  0.0000E+00  0.4000E+01  0.4000E+01
    -22.797  0.0000E+00  0.0000E+00  0.4000E+01  0.4000E+01
    -22.490  0.0000E+00  0.0000E+00  0.4000E+01  0.4000E+01
    -22.183  0.0000E+00  0.0000E+00  0.4000E+01  0.4000E+01
    -21.875  0.0000E+00  0.0000E+00  0.4000E+01  0.4000E+01
    -21.568  0.0000E+00  0.0000E+00  0.4000E+01  0.4000E+01
    -21.261  0.0000E+00  0.0000E+00  0.4000E+01  0.4000E+01
    -20.954  0.0000E+00  0.0000E+00  0.4000E+01  0.4000E+01
    -20.646  0.0000E+00  0.0000E+00  0.4000E+01  0.4000E+01
    -20.339  0.0000E+00  0.0000E+00  0.4000E+01  0.4000E+01
    -20.032  0.7828E-16  0.7949E-16  0.4000E+01  0.4000E+01
    -19.724  0.7360E+00  0.7362E+00  0.4226E+01  0.4226E+01
    -19.417  0.1201E+02  0.1201E+02  0.7915E+01  0.7915E+01
    -19.110  0.5990E+01  0.5991E+01  0.9758E+01  0.9758E+01
    -18.803  0.6541E+01  0.6540E+01  0.1177E+02  0.1177E+02
    -18.495  0.7550E+00  0.7550E+00  0.1200E+02  0.1200E+02
    -18.188  0.0000E+00  0.0000E+00  0.1200E+02  0.1200E+02
    -17.881  0.0000E+00  0.0000E+00  0.1200E+02  0.1200E+02
    -17.573  0.0000E+00  0.0000E+00  0.1200E+02  0.1200E+02
    -17.266  0.0000E+00  0.0000E+00  0.1200E+02  0.1200E+02
    -16.959  0.4340E-14  0.4256E-14  0.1200E+02  0.1200E+02
    -16.652  0.5966E+01  0.5953E+01  0.1383E+02  0.1383E+02
    -16.344  0.2098E+02  0.2099E+02  0.2028E+02  0.2028E+02
    -16.037  0.1051E+02  0.1051E+02  0.2351E+02  0.2351E+02
    -15.730  0.1589E+01  0.1590E+01  0.2400E+02  0.2400E+02
    -15.422  0.0000E+00  0.0000E+00  0.2400E+02  0.2400E+02
    -15.115  0.0000E+00  0.0000E+00  0.2400E+02  0.2400E+02
    -14.808  0.0000E+00  0.0000E+00  0.2400E+02  0.2400E+02
    -14.501  0.0000E+00  0.0000E+00  0.2400E+02  0.2400E+02
    -14.193  0.0000E+00  0.0000E+00  0.2400E+02  0.2400E+02
    -13.886  0.0000E+00  0.0000E+00  0.2400E+02  0.2400E+02
    -13.579  0.0000E+00  0.0000E+00  0.2400E+02  0.2400E+02
    -13.271  0.0000E+00  0.0000E+00  0.2400E+02  0.2400E+02
    -12.964  0.0000E+00  0.0000E+00  0.2400E+02  0.2400E+02
    -12.657  0.0000E+00  0.0000E+00  0.2400E+02  0.2400E+02
    -12.350  0.0000E+00  0.0000E+00  0.2400E+02  0.2400E+02
    -12.042  0.0000E+00  0.0000E+00  0.2400E+02  0.2400E+02
    -11.735  0.0000E+00  0.0000E+00  0.2400E+02  0.2400E+02
    -11.428  0.0000E+00  0.0000E+00  0.2400E+02  0.2400E+02
    -11.120  0.0000E+00  0.0000E+00  0.2400E+02  0.2400E+02
    -10.813  0.0000E+00  0.0000E+00  0.2400E+02  0.2400E+02
    -10.506  0.0000E+00  0.0000E+00  0.2400E+02  0.2400E+02
    -10.199  0.0000E+00  0.0000E+00  0.2400E+02  0.2400E+02
     -9.891  0.0000E+00  0.0000E+00  0.2400E+02  0.2400E+02
     -9.584  0.0000E+00  0.0000E+00  0.2400E+02  0.2400E+02
     -9.277  0.0000E+00  0.0000E+00  0.2400E+02  0.2400E+02
     -8.969  0.0000E+00  0.0000E+00  0.2400E+02  0.2400E+02
     -8.662  0.0000E+00  0.0000E+00  0.2400E+02  0.2400E+02
     -8.355  0.0000E+00  0.0000E+00  0.2400E+02  0.2400E+02
     -8.048  0.0000E+00  0.0000E+00  0.2400E+02  0.2400E+02
     -7.740  0.0000E+00  0.0000E+00  0.2400E+02  0.2400E+02
     -7.433  0.0000E+00  0.0000E+00  0.2400E+02  0.2400E+02
     -7.126  0.0000E+00  0.0000E+00  0.2400E+02  0.2400E+02
     -6.819  0.0000E+00  0.0000E+00  0.2400E+02  0.2400E+02
     -6.511  0.0000E+00  0.0000E+00  0.2400E+02  0.2400E+02
     -6.204  0.0000E+00  0.0000E+00  0.2400E+02  0.2400E+02
     -5.897  0.0000E+00  0.0000E+00  0.2400E+02  0.2400E+02
     -5.589  0.0000E+00  0.0000E+00  0.2400E+02  0.2400E+02
     -5.282  0.0000E+00  0.0000E+00  0.2400E+02  0.2400E+02
     -4.975  0.0000E+00  0.0000E+00  0.2400E+02  0.2400E+02
     -4.668  0.0000E+00  0.0000E+00  0.2400E+02  0.2400E+02
     -4.360  0.0000E+00  0.0000E+00  0.2400E+02  0.2400E+02
     -4.053  0.0000E+00  0.0000E+00  0.2400E+02  0.2400E+02
     -3.746  0.0000E+00  0.0000E+00  0.2400E+02  0.2400E+02
     -3.438  0.0000E+00  0.0000E+00  0.2400E+02  0.2400E+02
     -3.131  0.0000E+00  0.0000E+00  0.2400E+02  0.2400E+02
     -2.824  0.0000E+00  0.0000E+00  0.2400E+02  0.2400E+02
     -2.517  0.0000E+00  0.0000E+00  0.2400E+02  0.2400E+02
     -2.209  0.9329E-01  0.9339E-01  0.2403E+02  0.2403E+02
     -1.902  0.1764E+01  0.1764E+01  0.2457E+02  0.2457E+02
     -1.595  0.1622E+01  0.1623E+01  0.2507E+02  0.2507E+02
     -1.287  0.1011E+02  0.1011E+02  0.2817E+02  0.2817E+02
     -0.980  0.1640E+02  0.1640E+02  0.3322E+02  0.3322E+02
     -0.673  0.1062E+02  0.1062E+02  0.3648E+02  0.3648E+02
     -0.366  0.9927E+01  0.9927E+01  0.3953E+02  0.3953E+02
     -0.058  0.1088E+02  0.1088E+02  0.4287E+02  0.4287E+02
      0.249  0.1338E+02  0.1338E+02  0.4698E+02  0.4698E+02
      0.556  0.3303E+01  0.3303E+01  0.4800E+02  0.4800E+02
      0.864  0.1586E-02  0.1585E-02  0.4800E+02  0.4800E+02
      1.171  0.0000E+00  0.0000E+00  0.4800E+02  0.4800E+02
      1.478  0.0000E+00  0.0000E+00  0.4800E+02  0.4800E+02
      1.785  0.0000E+00  0.0000E+00  0.4800E+02  0.4800E+02
      2.093  0.0000E+00  0.0000E+00  0.4800E+02  0.4800E+02
      2.400  0.0000E+00  0.0000E+00  0.4800E+02  0.4800E+02
      2.707  0.0000E+00  0.0000E+00  0.4800E+02  0.4800E+02
      3.015  0.0000E+00  0.0000E+00  0.4800E+02  0.4800E+02
      3.322  0.0000E+00  0.0000E+00  0.4800E+02  0.4800E+02
      3.629  0.0000E+00  0.0000E+00  0.4800E+02  0.4800E+02
      3.936  0.0000E+00  0.0000E+00  0.4800E+02  0.4800E+02
      4.244  0.0000E+00  0.0000E+00  0.4800E+02  0.4800E+02
      4.551  0.0000E+00  0.0000E+00  0.4800E+02  0.4800E+02
      4.858  0.0000E+00  0.0000E+00  0.4800E+02  0.4800E+02
      5.166  0.0000E+00  0.0000E+00  0.4800E+02  0.4800E+02
      5.473  0.0000E+00  0.0000E+00  0.4800E+02  0.4800E+02
      5.780  0.0000E+00  0.0000E+00  0.4800E+02  0.4800E+02
      6.087  0.0000E+00  0.0000E+00  0.4800E+02  0.4800E+02
      6.395  0.0000E+00  0.0000E+00  0.4800E+02  0.4800E+02
      6.702  0.0000E+00  0.0000E+00  0.4800E+02  0.4800E+02
      7.009  0.0000E+00  0.0000E+00  0.4800E+02  0.4800E+02
      7.317  0.0000E+00  0.0000E+00  0.4800E+02  0.4800E+02
      7.624  0.1721E-01  0.1720E-01  0.4801E+02  0.4801E+02
      7.931  0.3448E+00  0.3449E+00  0.4811E+02  0.4811E+02
      8.238  0.1728E+00  0.1726E+00  0.4816E+02  0.4816E+02
      8.546  0.5013E+00  0.5007E+00  0.4832E+02  0.4832E+02
      8.853  0.2005E+01  0.2006E+01  0.4893E+02  0.4893E+02
      9.160  0.2708E+01  0.2724E+01  0.4977E+02  0.4977E+02
      9.468  0.5156E+01  0.5138E+01  0.5135E+02  0.5135E+02
      9.775  0.5394E+01  0.5419E+01  0.5301E+02  0.5302E+02
     10.082  0.1123E+02  0.1124E+02  0.5646E+02  0.5647E+02
     10.389  0.8443E+01  0.8487E+01  0.5905E+02  0.5908E+02
     10.697  0.3884E+01  0.3867E+01  0.6025E+02  0.6027E+02
     11.004  0.3923E+01  0.3924E+01  0.6145E+02  0.6147E+02
     11.311  0.5989E+01  0.5988E+01  0.6329E+02  0.6331E+02
     11.619  0.2296E+01  0.2229E+01  0.6400E+02  0.6400E+02
     11.926  0.5086E-04  0.0000E+00  0.6400E+02  0.6400E+02
     12.233  0.0000E+00  0.0000E+00  0.6400E+02  0.6400E+02
     12.540  0.0000E+00  0.0000E+00  0.6400E+02  0.6400E+02
     12.848  0.0000E+00  0.0000E+00  0.6400E+02  0.6400E+02
     13.155  0.0000E+00  0.0000E+00  0.6400E+02  0.6400E+02
     13.462  0.0000E+00  0.0000E+00  0.6400E+02  0.6400E+02
     13.770  0.0000E+00  0.0000E+00  0.6400E+02  0.6400E+02
     14.077  0.0000E+00  0.0000E+00  0.6400E+02  0.6400E+02
     14.384  0.0000E+00  0.0000E+00  0.6400E+02  0.6400E+02
     14.691  0.0000E+00  0.0000E+00  0.6400E+02  0.6400E+02
     14.999  0.0000E+00  0.0000E+00  0.6400E+02  0.6400E+02
     15.306  0.0000E+00  0.0000E+00  0.6400E+02  0.6400E+02
     15.613  0.0000E+00  0.0000E+00  0.6400E+02  0.6400E+02
     15.920  0.0000E+00  0.0000E+00  0.6400E+02  0.6400E+02
     16.228  0.0000E+00  0.0000E+00  0.6400E+02  0.6400E+02
     16.535  0.0000E+00  0.0000E+00  0.6400E+02  0.6400E+02
     16.842  0.0000E+00  0.0000E+00  0.6400E+02  0.6400E+02
     17.150  0.0000E+00  0.0000E+00  0.6400E+02  0.6400E+02
     17.457  0.0000E+00  0.0000E+00  0.6400E+02  0.6400E+02
     17.764  0.0000E+00  0.0000E+00  0.6400E+02  0.6400E+02
     18.071  0.0000E+00  0.0000E+00  0.6400E+02  0.6400E+02
     18.379  0.0000E+00  0.0000E+00  0.6400E+02  0.6400E+02
     18.686  0.0000E+00  0.0000E+00  0.6400E+02  0.6400E+02
     18.993  0.0000E+00  0.0000E+00  0.6400E+02  0.6400E+02
     19.301  0.0000E+00  0.0000E+00  0.6400E+02  0.6400E+02
     19.608  0.0000E+00  0.0000E+00  0.6400E+02  0.6400E+02
     19.915  0.0000E+00  0.0000E+00  0.6400E+02  0.6400E+02
     20.222  0.0000E+00  0.0000E+00  0.6400E+02  0.6400E+02
     20.530  0.0000E+00  0.0000E+00  0.6400E+02  0.6400E+02
     20.837  0.0000E+00  0.0000E+00  0.6400E+02  0.6400E+02
     21.144  0.0000E+00  0.0000E+00  0.6400E+02  0.6400E+02
     21.452  0.0000E+00  0.0000E+00  0.6400E+02  0.6400E+02
     21.759  0.0000E+00  0.0000E+00  0.6400E+02  0.6400E+02
     22.066  0.0000E+00  0.0000E+00  0.6400E+02  0.6400E+02
     22.373  0.0000E+00  0.0000E+00  0.6400E+02  0.6400E+02
     22.681  0.0000E+00  0.0000E+00  0.6400E+02  0.6400E+02
     22.988  0.0000E+00  0.0000E+00  0.6400E+02  0.6400E+02
     23.295  0.0000E+00  0.0000E+00  0.6400E+02  0.6400E+02
     23.603  0.0000E+00  0.0000E+00  0.6400E+02  0.6400E+02
     23.910  0.0000E+00  0.0000E+00  0.6400E+02  0.6400E+02
     24.217  0.0000E+00  0.0000E+00  0.6400E+02  0.6400E+02
     24.524  0.0000E+00  0.0000E+00  0.6400E+02  0.6400E+02
     24.832  0.0000E+00  0.0000E+00  0.6400E+02  0.6400E+02
     25.139  0.0000E+00  0.0000E+00  0.6400E+02  0.6400E+02
     25.446  0.0000E+00  0.0000E+00  0.6400E+02  0.6400E+02
     25.754  0.0000E+00  0.0000E+00  0.6400E+02  0.6400E+02
     26.061  0.0000E+00  0.0000E+00  0.6400E+02  0.6400E+02
     26.368  0.0000E+00  0.0000E+00  0.6400E+02  0.6400E+02
     26.675  0.0000E+00  0.0000E+00  0.6400E+02  0.6400E+02
     26.983  0.0000E+00  0.0000E+00  0.6400E+02  0.6400E+02
     27.290  0.0000E+00  0.0000E+00  0.6400E+02  0.6400E+02
     27.597  0.0000E+00  0.0000E+00  0.6400E+02  0.6400E+02
     27.905  0.0000E+00  0.0000E+00  0.6400E+02  0.6400E+02
     28.212  0.0000E+00  0.0000E+00  0.6400E+02  0.6400E+02
     28.519  0.0000E+00  0.0000E+00  0.6400E+02  0.6400E+02
     28.826  0.0000E+00  0.0000E+00  0.6400E+02  0.6400E+02
     29.134  0.0000E+00  0.0000E+00  0.6400E+02  0.6400E+02
     29.441  0.0000E+00  0.0000E+00  0.6400E+02  0.6400E+02
     29.748  0.0000E+00  0.0000E+00  0.6400E+02  0.6400E+02
     30.056  0.0000E+00  0.0000E+00  0.6400E+02  0.6400E+02
     30.363  0.0000E+00  0.0000E+00  0.6400E+02  0.6400E+02
     30.670  0.0000E+00  0.0000E+00  0.6400E+02  0.6400E+02
     30.977  0.0000E+00  0.0000E+00  0.6400E+02  0.6400E+02
     31.285  0.0000E+00  0.0000E+00  0.6400E+02  0.6400E+02
     31.592  0.0000E+00  0.0000E+00  0.6400E+02  0.6400E+02
     31.899  0.0000E+00  0.0000E+00  0.6400E+02  0.6400E+02
     32.207  0.0000E+00  0.0000E+00  0.6400E+02  0.6400E+02
     32.514  0.0000E+00  0.0000E+00  0.6400E+02  0.6400E+02
     32.821  0.0000E+00  0.0000E+00  0.6400E+02  0.6400E+02
     33.128  0.0000E+00  0.0000E+00  0.6400E+02  0.6400E+02
     33.436  0.0000E+00  0.0000E+00  0.6400E+02  0.6400E+02
     33.743  0.0000E+00  0.0000E+00  0.6400E+02  0.6400E+02
     34.050  0.0000E+00  0.0000E+00  0.6400E+02  0.6400E+02
     34.358  0.0000E+00  0.0000E+00  0.6400E+02  0.6400E+02
     34.665  0.0000E+00  0.0000E+00  0.6400E+02  0.6400E+02
     34.972  0.0000E+00  0.0000E+00  0.6400E+02  0.6400E+02
     35.279  0.0000E+00  0.0000E+00  0.6400E+02  0.6400E+02
     35.587  0.0000E+00  0.0000E+00  0.6400E+02  0.6400E+02
     35.894  0.0000E+00  0.0000E+00  0.6400E+02  0.6400E+02
     36.201  0.0000E+00  0.0000E+00  0.6400E+02  0.6400E+02
     36.509  0.0000E+00  0.0000E+00  0.6400E+02  0.6400E+02
     36.816  0.0000E+00  0.0000E+00  0.6400E+02  0.6400E+02
     37.123  0.0000E+00  0.0000E+00  0.6400E+02  0.6400E+02
     37.430  0.0000E+00  0.0000E+00  0.6400E+02  0.6400E+02
     37.738  0.0000E+00  0.0000E+00  0.6400E+02  0.6400E+02
     38.045  0.0000E+00  0.0000E+00  0.6400E+02  0.6400E+02
     38.352  0.0000E+00  0.0000E+00  0.6400E+02  0.6400E+02
     38.660  0.0000E+00  0.0000E+00  0.6400E+02  0.6400E+02
     38.967  0.0000E+00  0.0000E+00  0.6400E+02  0.6400E+02
     39.274  0.0000E+00  0.0000E+00  0.6400E+02  0.6400E+02
     39.581  0.0000E+00  0.0000E+00  0.6400E+02  0.6400E+02
     39.889  0.0000E+00  0.0000E+00  0.6400E+02  0.6400E+02
     40.196  0.0000E+00  0.0000E+00  0.6400E+02  0.6400E+02
     40.503  0.0000E+00  0.0000E+00  0.6400E+02  0.6400E+02
     40.810  0.0000E+00  0.0000E+00  0.6400E+02  0.6400E+02
     41.118  0.0000E+00  0.0000E+00  0.6400E+02  0.6400E+02
     41.425  0.0000E+00  0.0000E+00  0.6400E+02  0.6400E+02
     41.732  0.0000E+00  0.0000E+00  0.6400E+02  0.6400E+02
     42.040  0.0000E+00  0.0000E+00  0.6400E+02  0.6400E+02
     42.347  0.0000E+00  0.0000E+00  0.6400E+02  0.6400E+02
     42.654  0.0000E+00  0.0000E+00  0.6400E+02  0.6400E+02
     42.961  0.0000E+00  0.0000E+00  0.6400E+02  0.6400E+02
     43.269  0.0000E+00  0.0000E+00  0.6400E+02  0.6400E+02
     43.576  0.0000E+00  0.0000E+00  0.6400E+02  0.6400E+02
     43.883  0.0000E+00  0.0000E+00  0.6400E+02  0.6400E+02
     44.191  0.0000E+00  0.0000E+00  0.6400E+02  0.6400E+02
     44.498  0.0000E+00  0.0000E+00  0.6400E+02  0.6400E+02
     44.805  0.0000E+00  0.0000E+00  0.6400E+02  0.6400E+02
     45.112  0.0000E+00  0.0000E+00  0.6400E+02  0.6400E+02
     45.420  0.0000E+00  0.0000E+00  0.6400E+02  0.6400E+02
     45.727  0.0000E+00  0.0000E+00  0.6400E+02  0.6400E+02
     46.034  0.0000E+00  0.0000E+00  0.6400E+02  0.6400E+02
     46.342  0.0000E+00  0.0000E+00  0.6400E+02  0.6400E+02
     46.649  0.0000E+00  0.0000E+00  0.6400E+02  0.6400E+02
     46.956  0.0000E+00  0.0000E+00  0.6400E+02  0.6400E+02
     47.263  0.0000E+00  0.0000E+00  0.6400E+02  0.6400E+02
     47.571  0.0000E+00  0.0000E+00  0.6400E+02  0.6400E+02
     47.878  0.0000E+00  0.0000E+00  0.6400E+02  0.6400E+02
     48.185  0.0000E+00  0.0000E+00  0.6400E+02  0.6400E+02
     48.493  0.0000E+00  0.0000E+00  0.6400E+02  0.6400E+02
     48.800  0.0000E+00  0.0000E+00  0.6400E+02  0.6400E+02
     49.107  0.0000E+00  0.0000E+00  0.6400E+02  0.6400E+02
     49.414  0.0000E+00  0.0000E+00  0.6400E+02  0.6400E+02
     49.722  0.0000E+00  0.0000E+00  0.6400E+02  0.6400E+02
     50.029  0.0000E+00  0.0000E+00  0.6400E+02  0.6400E+02
     50.336  0.0000E+00  0.0000E+00  0.6400E+02  0.6400E+02
     50.644  0.0000E+00  0.0000E+00  0.6400E+02  0.6400E+02
     50.951  0.0000E+00  0.0000E+00  0.6400E+02  0.6400E+02
     51.258  0.0000E+00  0.0000E+00  0.6400E+02  0.6400E+02
     51.565  0.0000E+00  0.0000E+00  0.6400E+02  0.6400E+02
     51.873  0.0000E+00  0.0000E+00  0.6400E+02  0.6400E+02
     52.180  0.0000E+00  0.0000E+00  0.6400E+02  0.6400E+02
     52.487  0.0000E+00  0.0000E+00  0.6400E+02  0.6400E+02
     52.795  0.0000E+00  0.0000E+00  0.6400E+02  0.6400E+02
     53.102  0.0000E+00  0.0000E+00  0.6400E+02  0.6400E+02
     53.409  0.0000E+00  0.0000E+00  0.6400E+02  0.6400E+02
     53.716  0.0000E+00  0.0000E+00  0.6400E+02  0.6400E+02
     54.024  0.0000E+00  0.0000E+00  0.6400E+02  0.6400E+02
     54.331  0.0000E+00  0.0000E+00  0.6400E+02  0.6400E+02
     54.638  0.0000E+00  0.0000E+00  0.6400E+02  0.6400E+02
     54.946  0.0000E+00  0.0000E+00  0.6400E+02  0.6400E+02
     55.253  0.0000E+00  0.0000E+00  0.6400E+02  0.6400E+02
     55.560  0.0000E+00  0.0000E+00  0.6400E+02  0.6400E+02
     55.867  0.0000E+00  0.0000E+00  0.6400E+02  0.6400E+02
     55.86739778    -36.31775941  301      0.90199780      1.00000000
    -36.318  0.0000E+00  0.0000E+00  0.0000E+00  0.0000E+00  0.0000E+00  0.0000E+00  0.0000E+00  0.0000E+00  0.0000E+00  0.0000E+00  0.0000E+00  0.0000E+00  0.0000E+00  0.0000E+00  0.0000E+00  0.0000E+00  0.0000E+00  0.0000E+00
    -36.010  0.0000E+00  0.0000E+00  0.0000E+00  0.0000E+00  0.0000E+00  0.0000E+00  0.0000E+00  0.0000E+00  0.0000E+00  0.0000E+00  0.0000E+00  0.0000E+00  0.0000E+00  0.0000E+00  0.0000E+00  0.0000E+00  0.0000E+00  0.0000E+00
    -35.703  0.3346E-01  0.3322E-01  0.1771E-08  0.1759E-08  0.7562E-08  0.7509E-08  0.7520E-08  0.7469E-08  0.2741E-08  0.2717E-08  0.2599E-08  0.2584E-08  0.2969E-09  0.2949E-09  0.5520E-08  0.5482E-08  0.2602E-09  0.2577E-09
    -35.396  0.3211E+01  0.3211E+01  0.1365E-06  0.1366E-06  0.6278E-06  0.6278E-06  0.6544E-06  0.6546E-06  0.3145E-06  0.3141E-06  0.2961E-06  0.2966E-06  0.6059E-07  0.6071E-07  0.6311E-06  0.6317E-06  0.5566E-07  0.5555E-07
    -35.089  0.0000E+00  0.0000E+00  0.0000E+00  0.0000E+00  0.0000E+00  0.0000E+00  0.0000E+00  0.0000E+00  0.0000E+00  0.0000E+00  0.0000E+00  0.0000E+00  0.0000E+00  0.0000E+00  0.0000E+00  0.0000E+00  0.0000E+00  0.0000E+00
    -34.781  0.0000E+00  0.0000E+00  0.0000E+00  0.0000E+00  0.0000E+00  0.0000E+00  0.0000E+00  0.0000E+00  0.0000E+00  0.0000E+00  0.0000E+00  0.0000E+00  0.0000E+00  0.0000E+00  0.0000E+00  0.0000E+00  0.0000E+00  0.0000E+00
    -34.474  0.0000E+00  0.0000E+00  0.0000E+00  0.0000E+00  0.0000E+00  0.0000E+00  0.0000E+00  0.0000E+00  0.0000E+00  0.0000E+00  0.0000E+00  0.0000E+00  0.0000E+00  0.0000E+00  0.0000E+00  0.0000E+00  0.0000E+00  0.0000E+00
    -34.167  0.0000E+00  0.0000E+00  0.0000E+00  0.0000E+00  0.0000E+00  0.0000E+00  0.0000E+00  0.0000E+00  0.0000E+00  0.0000E+00  0.0000E+00  0.0000E+00  0.0000E+00  0.0000E+00  0.0000E+00  0.0000E+00  0.0000E+00  0.0000E+00
    -33.859  0.0000E+00  0.0000E+00  0.0000E+00  0.0000E+00  0.0000E+00  0.0000E+00  0.0000E+00  0.0000E+00  0.0000E+00  0.0000E+00  0.0000E+00  0.0000E+00  0.0000E+00  0.0000E+00  0.0000E+00  0.0000E+00  0.0000E+00  0.0000E+00
    -33.552  0.0000E+00  0.0000E+00  0.0000E+00  0.0000E+00  0.0000E+00  0.0000E+00  0.0000E+00  0.0000E+00  0.0000E+00  0.0000E+00  0.0000E+00  0.0000E+00  0.0000E+00  0.0000E+00  0.0000E+00  0.0000E+00  0.0000E+00  0.0000E+00
    -33.245  0.0000E+00  0.0000E+00  0.0000E+00  0.0000E+00  0.0000E+00  0.0000E+00  0.0000E+00  0.0000E+00  0.0000E+00  0.0000E+00  0.0000E+00  0.0000E+00  0.0000E+00  0.0000E+00  0.0000E+00  0.0000E+00  0.0000E+00  0.0000E+00
    -32.938  0.0000E+00  0.0000E+00  0.0000E+00  0.0000E+00  0.0000E+00  0.0000E+00  0.0000E+00  0.0000E+00  0.0000E+00  0.0000E+00  0.0000E+00  0.0000E+00  0.0000E+00  0.0000E+00  0.0000E+00  0.0000E+00  0.0000E+00  0.0000E+00
    -32.630  0.0000E+00  0.0000E+00  0.0000E+00  0.0000E+00  0.0000E+00  0.0000E+00  0.0000E+00  0.0000E+00  0.0000E+00  0.0000E+00  0.0000E+00  0.0000E+00  0.0000E+00  0.0000E+00  0.0000E+00  0.0000E+00  0.0000E+00  0.0000E+00
    -32.323  0.0000E+00  0.0000E+00  0.0000E+00  0.0000E+00  0.0000E+00  0.0000E+00  0.0000E+00  0.0000E+00  0.0000E+00  0.0000E+00  0.0000E+00  0.0000E+00  0.0000E+00  0.0000E+00  0.0000E+00  0.0000E+00  0.0000E+00  0.0000E+00
    -32.016  0.0000E+00  0.0000E+00  0.0000E+00  0.0000E+00  0.0000E+00  0.0000E+00  0.0000E+00  0.0000E+00  0.0000E+00  0.0000E+00  0.0000E+00  0.0000E+00  0.0000E+00  0.0000E+00  0.0000E+00  0.0000E+00  0.0000E+00  0.0000E+00
    -31.709  0.0000E+00  0.0000E+00  0.0000E+00  0.0000E+00  0.0000E+00  0.0000E+00  0.0000E+00  0.0000E+00  0.0000E+00  0.0000E+00  0.0000E+00  0.0000E+00  0.0000E+00  0.0000E+00  0.0000E+00  0.0000E+00  0.0000E+00  0.0000E+00
    -31.401  0.0000E+00  0.0000E+00  0.0000E+00  0.0000E+00  0.0000E+00  0.0000E+00  0.0000E+00  0.0000E+00  0.0000E+00  0.0000E+00  0.0000E+00  0.0000E+00  0.0000E+00  0.0000E+00  0.0000E+00  0.0000E+00  0.0000E+00  0.0000E+00
    -31.094  0.0000E+00  0.0000E+00  0.0000E+00  0.0000E+00  0.0000E+00  0.0000E+00  0.0000E+00  0.0000E+00  0.0000E+00  0.0000E+00  0.0000E+00  0.0000E+00  0.0000E+00  0.0000E+00  0.0000E+00  0.0000E+00  0.0000E+00  0.0000E+00
    -30.787  0.0000E+00  0.0000E+00  0.0000E+00  0.0000E+00  0.0000E+00  0.0000E+00  0.0000E+00  0.0000E+00  0.0000E+00  0.0000E+00  0.0000E+00  0.0000E+00  0.0000E+00  0.0000E+00  0.0000E+00  0.0000E+00  0.0000E+00  0.0000E+00
    -30.479  0.0000E+00  0.0000E+00  0.0000E+00  0.0000E+00  0.0000E+00  0.0000E+00  0.0000E+00  0.0000E+00  0.0000E+00  0.0000E+00  0.0000E+00  0.0000E+00  0.0000E+00  0.0000E+00  0.0000E+00  0.0000E+00  0.0000E+00  0.0000E+00
    -30.172  0.0000E+00  0.0000E+00  0.0000E+00  0.0000E+00  0.0000E+00  0.0000E+00  0.0000E+00  0.0000E+00  0.0000E+00  0.0000E+00  0.0000E+00  0.0000E+00  0.0000E+00  0.0000E+00  0.0000E+00  0.0000E+00  0.0000E+00  0.0000E+00
    -29.865  0.0000E+00  0.0000E+00  0.0000E+00  0.0000E+00  0.0000E+00  0.0000E+00  0.0000E+00  0.0000E+00  0.0000E+00  0.0000E+00  0.0000E+00  0.0000E+00  0.0000E+00  0.0000E+00  0.0000E+00  0.0000E+00  0.0000E+00  0.0000E+00
    -29.558  0.0000E+00  0.0000E+00  0.0000E+00  0.0000E+00  0.0000E+00  0.0000E+00  0.0000E+00  0.0000E+00  0.0000E+00  0.0000E+00  0.0000E+00  0.0000E+00  0.0000E+00  0.0000E+00  0.0000E+00  0.0000E+00  0.0000E+00  0.0000E+00
    -29.250  0.0000E+00  0.0000E+00  0.0000E+00  0.0000E+00  0.0000E+00  0.0000E+00  0.0000E+00  0.0000E+00  0.0000E+00  0.0000E+00  0.0000E+00  0.0000E+00  0.0000E+00  0.0000E+00  0.0000E+00  0.0000E+00  0.0000E+00  0.0000E+00
    -28.943  0.0000E+00  0.0000E+00  0.0000E+00  0.0000E+00  0.0000E+00  0.0000E+00  0.0000E+00  0.0000E+00  0.0000E+00  0.0000E+00  0.0000E+00  0.0000E+00  0.0000E+00  0.0000E+00  0.0000E+00  0.0000E+00  0.0000E+00  0.0000E+00
    -28.636  0.0000E+00  0.0000E+00  0.0000E+00  0.0000E+00  0.0000E+00  0.0000E+00  0.0000E+00  0.0000E+00  0.0000E+00  0.0000E+00  0.0000E+00  0.0000E+00  0.0000E+00  0.0000E+00  0.0000E+00  0.0000E+00  0.0000E+00  0.0000E+00
    -28.328  0.0000E+00  0.0000E+00  0.0000E+00  0.0000E+00  0.0000E+00  0.0000E+00  0.0000E+00  0.0000E+00  0.0000E+00  0.0000E+00  0.0000E+00  0.0000E+00  0.0000E+00  0.0000E+00  0.0000E+00  0.0000E+00  0.0000E+00  0.0000E+00
    -28.021  0.0000E+00  0.0000E+00  0.0000E+00  0.0000E+00  0.0000E+00  0.0000E+00  0.0000E+00  0.0000E+00  0.0000E+00  0.0000E+00  0.0000E+00  0.0000E+00  0.0000E+00  0.0000E+00  0.0000E+00  0.0000E+00  0.0000E+00  0.0000E+00
    -27.714  0.0000E+00  0.0000E+00  0.0000E+00  0.0000E+00  0.0000E+00  0.0000E+00  0.0000E+00  0.0000E+00  0.0000E+00  0.0000E+00  0.0000E+00  0.0000E+00  0.0000E+00  0.0000E+00  0.0000E+00  0.0000E+00  0.0000E+00  0.0000E+00
    -27.407  0.0000E+00  0.0000E+00  0.0000E+00  0.0000E+00  0.0000E+00  0.0000E+00  0.0000E+00  0.0000E+00  0.0000E+00  0.0000E+00  0.0000E+00  0.0000E+00  0.0000E+00  0.0000E+00  0.0000E+00  0.0000E+00  0.0000E+00  0.0000E+00
    -27.099  0.0000E+00  0.0000E+00  0.0000E+00  0.0000E+00  0.0000E+00  0.0000E+00  0.0000E+00  0.0000E+00  0.0000E+00  0.0000E+00  0.0000E+00  0.0000E+00  0.0000E+00  0.0000E+00  0.0000E+00  0.0000E+00  0.0000E+00  0.0000E+00
    -26.792  0.0000E+00  0.0000E+00  0.0000E+00  0.0000E+00  0.0000E+00  0.0000E+00  0.0000E+00  0.0000E+00  0.0000E+00  0.0000E+00  0.0000E+00  0.0000E+00  0.0000E+00  0.0000E+00  0.0000E+00  0.0000E+00  0.0000E+00  0.0000E+00
    -26.485  0.0000E+00  0.0000E+00  0.0000E+00  0.0000E+00  0.0000E+00  0.0000E+00  0.0000E+00  0.0000E+00  0.0000E+00  0.0000E+00  0.0000E+00  0.0000E+00  0.0000E+00  0.0000E+00  0.0000E+00  0.0000E+00  0.0000E+00  0.0000E+00
    -26.177  0.0000E+00  0.0000E+00  0.0000E+00  0.0000E+00  0.0000E+00  0.0000E+00  0.0000E+00  0.0000E+00  0.0000E+00  0.0000E+00  0.0000E+00  0.0000E+00  0.0000E+00  0.0000E+00  0.0000E+00  0.0000E+00  0.0000E+00  0.0000E+00
    -25.870  0.0000E+00  0.0000E+00  0.0000E+00  0.0000E+00  0.0000E+00  0.0000E+00  0.0000E+00  0.0000E+00  0.0000E+00  0.0000E+00  0.0000E+00  0.0000E+00  0.0000E+00  0.0000E+00  0.0000E+00  0.0000E+00  0.0000E+00  0.0000E+00
    -25.563  0.0000E+00  0.0000E+00  0.0000E+00  0.0000E+00  0.0000E+00  0.0000E+00  0.0000E+00  0.0000E+00  0.0000E+00  0.0000E+00  0.0000E+00  0.0000E+00  0.0000E+00  0.0000E+00  0.0000E+00  0.0000E+00  0.0000E+00  0.0000E+00
    -25.256  0.0000E+00  0.0000E+00  0.0000E+00  0.0000E+00  0.0000E+00  0.0000E+00  0.0000E+00  0.0000E+00  0.0000E+00  0.0000E+00  0.0000E+00  0.0000E+00  0.0000E+00  0.0000E+00  0.0000E+00  0.0000E+00  0.0000E+00  0.0000E+00
    -24.948  0.0000E+00  0.0000E+00  0.0000E+00  0.0000E+00  0.0000E+00  0.0000E+00  0.0000E+00  0.0000E+00  0.0000E+00  0.0000E+00  0.0000E+00  0.0000E+00  0.0000E+00  0.0000E+00  0.0000E+00  0.0000E+00  0.0000E+00  0.0000E+00
    -24.641  0.0000E+00  0.0000E+00  0.0000E+00  0.0000E+00  0.0000E+00  0.0000E+00  0.0000E+00  0.0000E+00  0.0000E+00  0.0000E+00  0.0000E+00  0.0000E+00  0.0000E+00  0.0000E+00  0.0000E+00  0.0000E+00  0.0000E+00  0.0000E+00
    -24.334  0.0000E+00  0.0000E+00  0.0000E+00  0.0000E+00  0.0000E+00  0.0000E+00  0.0000E+00  0.0000E+00  0.0000E+00  0.0000E+00  0.0000E+00  0.0000E+00  0.0000E+00  0.0000E+00  0.0000E+00  0.0000E+00  0.0000E+00  0.0000E+00
    -24.026  0.0000E+00  0.0000E+00  0.0000E+00  0.0000E+00  0.0000E+00  0.0000E+00  0.0000E+00  0.0000E+00  0.0000E+00  0.0000E+00  0.0000E+00  0.0000E+00  0.0000E+00  0.0000E+00  0.0000E+00  0.0000E+00  0.0000E+00  0.0000E+00
    -23.719  0.0000E+00  0.0000E+00  0.0000E+00  0.0000E+00  0.0000E+00  0.0000E+00  0.0000E+00  0.0000E+00  0.0000E+00  0.0000E+00  0.0000E+00  0.0000E+00  0.0000E+00  0.0000E+00  0.0000E+00  0.0000E+00  0.0000E+00  0.0000E+00
    -23.412  0.0000E+00  0.0000E+00  0.0000E+00  0.0000E+00  0.0000E+00  0.0000E+00  0.0000E+00  0.0000E+00  0.0000E+00  0.0000E+00  0.0000E+00  0.0000E+00  0.0000E+00  0.0000E+00  0.0000E+00  0.0000E+00  0.0000E+00  0.0000E+00
    -23.105  0.0000E+00  0.0000E+00  0.0000E+00  0.0000E+00  0.0000E+00  0.0000E+00  0.0000E+00  0.0000E+00  0.0000E+00  0.0000E+00  0.0000E+00  0.0000E+00  0.0000E+00  0.0000E+00  0.0000E+00  0.0000E+00  0.0000E+00  0.0000E+00
    -22.797  0.0000E+00  0.0000E+00  0.0000E+00  0.0000E+00  0.0000E+00  0.0000E+00  0.0000E+00  0.0000E+00  0.0000E+00  0.0000E+00  0.0000E+00  0.0000E+00  0.0000E+00  0.0000E+00  0.0000E+00  0.0000E+00  0.0000E+00  0.0000E+00
    -22.490  0.0000E+00  0.0000E+00  0.0000E+00  0.0000E+00  0.0000E+00  0.0000E+00  0.0000E+00  0.0000E+00  0.0000E+00  0.0000E+00  0.0000E+00  0.0000E+00  0.0000E+00  0.0000E+00  0.0000E+00  0.0000E+00  0.0000E+00  0.0000E+00
    -22.183  0.0000E+00  0.0000E+00  0.0000E+00  0.0000E+00  0.0000E+00  0.0000E+00  0.0000E+00  0.0000E+00  0.0000E+00  0.0000E+00  0.0000E+00  0.0000E+00  0.0000E+00  0.0000E+00  0.0000E+00  0.0000E+00  0.0000E+00  0.0000E+00
    -21.875  0.0000E+00  0.0000E+00  0.0000E+00  0.0000E+00  0.0000E+00  0.0000E+00  0.0000E+00  0.0000E+00  0.0000E+00  0.0000E+00  0.0000E+00  0.0000E+00  0.0000E+00  0.0000E+00  0.0000E+00  0.0000E+00  0.0000E+00  0.0000E+00
    -21.568  0.0000E+00  0.0000E+00  0.0000E+00  0.0000E+00  0.0000E+00  0.0000E+00  0.0000E+00  0.0000E+00  0.0000E+00  0.0000E+00  0.0000E+00  0.0000E+00  0.0000E+00  0.0000E+00  0.0000E+00  0.0000E+00  0.0000E+00  0.0000E+00
    -21.261  0.0000E+00  0.0000E+00  0.0000E+00  0.0000E+00  0.0000E+00  0.0000E+00  0.0000E+00  0.0000E+00  0.0000E+00  0.0000E+00  0.0000E+00  0.0000E+00  0.0000E+00  0.0000E+00  0.0000E+00  0.0000E+00  0.0000E+00  0.0000E+00
    -20.954  0.0000E+00  0.0000E+00  0.0000E+00  0.0000E+00  0.0000E+00  0.0000E+00  0.0000E+00  0.0000E+00  0.0000E+00  0.0000E+00  0.0000E+00  0.0000E+00  0.0000E+00  0.0000E+00  0.0000E+00  0.0000E+00  0.0000E+00  0.0000E+00