   12   12    1    2
  0.1380445E+02  0.5492037E-09  0.5492037E-09  0.5492037E-09  0.5000000E-15
  1.000000000000000E-004
  CAR 
 Fluorite (band)                         
   96  300   64
 
  0.0000000E+00  0.0000000E+00  0.0000000E+00  0.3333333E-02
   1      -35.648901    -35.648803
   2      -35.608469    -35.608371
   3      -35.608469    -35.608371
   4      -35.608469    -35.608371
   5      -19.744263    -19.744278
   6      -19.744263    -19.744278
   7      -19.744263    -19.744278
   8      -19.421724    -19.421753
   9      -18.969009    -18.969036
  10      -18.969009    -18.969036
  11      -18.969009    -18.969036
  12      -18.678735    -18.678761
  13      -16.683490    -16.683404
  14      -16.683490    -16.683404
  15      -16.683490    -16.683404
  16      -16.683490    -16.683404
  17      -16.683490    -16.683404
  18      -16.683490    -16.683404
  19      -16.587642    -16.587554
  20      -16.587642    -16.587554
  21      -16.587642    -16.587554
  22      -15.942991    -15.942915
  23      -15.942991    -15.942915
  24      -15.942991    -15.942915
  25       -2.179249     -2.179273
  26       -2.179249     -2.179273
  27       -2.179249     -2.179273
  28       -1.588026     -1.588048
  29       -1.588026     -1.588048
  30       -1.588026     -1.588048
  31       -1.161825     -1.161844
  32       -1.161825     -1.161844
  33       -1.161825     -1.161844
  34       -1.161825     -1.161844
  35       -1.161825     -1.161844
  36       -1.161825     -1.161844
  37        0.114536      0.114528
  38        0.114536      0.114528
  39        0.114536      0.114528
  40        0.114536      0.114528
  41        0.114536      0.114528
  42        0.114536      0.114528
  43        0.212425      0.212418
  44        0.212425      0.212418
  45        0.212425      0.212418
  46        0.466790      0.466782
  47        0.466790      0.466782
  48        0.466790      0.466782
  49        7.656538      7.656548
  50        8.539332      8.539422
  51        8.539558      8.539573
  52        8.539854      8.539848
  53        9.567111      9.567294
  54        9.569839      9.568655
  55        9.886317      9.885173
  56        9.888160      9.886233
  57        9.890568      9.890210
  58       10.456250     10.457909
  59       10.464364     10.463918
  60       10.485300     10.506140
  61       11.219194     11.217439
  62       11.222499     11.239776
  63       11.235946     11.300040
  64       11.381453     11.480303
 
  0.1020408E-01  0.0000000E+00  0.1020408E-01  0.3333333E-02
   1      -35.648871    -35.648773
   2      -35.608480    -35.608381
   3      -35.608480    -35.608381
   4      -35.608469    -35.608370
   5      -19.744034    -19.744049
   6      -19.744034    -19.744049
   7      -19.743947    -19.743962
   8      -19.421818    -19.421847
   9      -18.969548    -18.969575
  10      -18.969206    -18.969234
  11      -18.969206    -18.969234
  12      -18.678891    -18.678917
  13      -16.683468    -16.683381
  14      -16.683468    -16.683381
  15      -16.683456    -16.683370
  16      -16.683204    -16.683117
  17      -16.683204    -16.683117
  18      -16.683005    -16.682918
  19      -16.587692    -16.587603
  20      -16.587656    -16.587568
  21      -16.587267    -16.587178
  22      -15.943296    -15.943220
  23      -15.943296    -15.943220
  24      -15.943284    -15.943209
  25       -2.178762     -2.178786
  26       -2.178501     -2.178525
  27       -2.178501     -2.178525
  28       -1.587879     -1.587901
  29       -1.587631     -1.587653
  30       -1.587370     -1.587392
  31       -1.162265     -1.162284
  32       -1.162265     -1.162284
  33       -1.162029     -1.162047
  34       -1.161697     -1.161715
  35       -1.161697     -1.161715
  36       -1.161585     -1.161603
  37        0.114051      0.114043
  38        0.114258      0.114250
  39        0.114258      0.114250
  40        0.114412      0.114403
  41        0.114690      0.114681
  42        0.114690      0.114681
  43        0.211413      0.211406
  44        0.211921      0.211914
  45        0.212467      0.212460
  46        0.466082      0.466075
  47        0.466082      0.466075
  48        0.466650      0.466643
  49        7.658429      7.658554
  50        8.539869      8.539855
  51        8.539891      8.539879
  52        8.540421      8.540156
  53        9.567434      9.566760
  54        9.570395      9.569301
  55        9.887679      9.887487
  56        9.894744      9.888419
  57        9.900590      9.892139
  58       10.464560     10.458350
  59       10.516389     10.469007
  60       10.548361     10.501751
  61       11.216098     11.215823
  62       11.268634     11.232461
  63       11.421762     11.282064
  64       11.468390     11.443255
 
  0.2040816E-01  0.0000000E+00  0.2040816E-01  0.3333333E-02
   1      -35.648782    -35.648684
   2      -35.608511    -35.608412
   3      -35.608511    -35.608412
   4      -35.608469    -35.608371
   5      -19.743349    -19.743364
   6      -19.743349    -19.743364
   7      -19.742999    -19.743014
   8      -19.422105    -19.422133
   9      -18.971163    -18.971190
  10      -18.969798    -18.969826
  11      -18.969798    -18.969826
  12      -18.679358    -18.679384
  13      -16.683399    -16.683313
  14      -16.683399    -16.683313
  15      -16.683353    -16.683267
  16      -16.682345    -16.682259
  17      -16.682345    -16.682259
  18      -16.681551    -16.681465
  19      -16.587796    -16.587708
  20      -16.587637    -16.587549
  21      -16.586255    -16.586166
  22      -15.944210    -15.944134
  23      -15.944210    -15.944134
  24      -15.944163    -15.944087
  25       -2.177302     -2.177326
  26       -2.176258     -2.176282
  27       -2.176258     -2.176282
  28       -1.587445     -1.587468
  29       -1.586445     -1.586468
  30       -1.585407     -1.585429
  31       -1.163583     -1.163602
  32       -1.163583     -1.163602
  33       -1.162637     -1.162655
  34       -1.161310     -1.161329
  35       -1.161310     -1.161329
  36       -1.160863     -1.160882
  37        0.112597      0.112589
  38        0.113424      0.113416
  39        0.113424      0.113416
  40        0.114039      0.114030
  41        0.115149      0.115140
  42        0.115149      0.115140
  43        0.208319      0.208311
  44        0.210448      0.210440
  45        0.212614      0.212607
  46        0.463961      0.463954
  47        0.463961      0.463954
  48        0.466232      0.466225
  49        7.664239      7.664229
  50        8.541612      8.541637
  51        8.541789      8.541847
  52        8.541926      8.542353
  53        9.567575      9.568381
  54        9.569824      9.574271
  55        9.888885      9.889348
  56        9.890491      9.892454
  57        9.894083      9.907969
  58       10.456534     10.466037
  59       10.463011     10.464884
  60       10.500646     10.515945
  61       11.213650     11.212064
  62       11.219499     11.274081
  63       11.289560     11.345037
  64       11.398881     11.449580
 
  0.3061224E-01  0.0000000E+00  0.3061224E-01  0.3333333E-02
   1      -35.648661    -35.648563
   2      -35.608578    -35.608479
   3      -35.608578    -35.608479
   4      -35.608484    -35.608385
   5      -19.742400    -19.742415
   6      -19.742400    -19.742415
   7      -19.741609    -19.741624
   8      -19.422891    -19.422920
   9      -18.973844    -18.973871
  10      -18.970782    -18.970809
  11      -18.970782    -18.970809
  12      -18.680139    -18.680164
  13      -16.683309    -16.683222
  14      -16.683309    -16.683222
  15      -16.683184    -16.683097
  16      -16.680927    -16.680841
  17      -16.680927    -16.680841
  18      -16.679228    -16.679141
  19      -16.587964    -16.587876
  20      -16.587692    -16.587603
  21      -16.584655    -16.584567
  22      -15.945815    -15.945739
  23      -15.945815    -15.945739
  24      -15.945659    -15.945583
  25       -2.174872     -2.174896
  26       -2.172526     -2.172550
  27       -2.172526     -2.172550
  28       -1.586727     -1.586749
  29       -1.584470     -1.584493
  30       -1.582141     -1.582163
  31       -1.165774     -1.165792
  32       -1.165774     -1.165792
  33       -1.163654     -1.163672
  34       -1.160664     -1.160682
  35       -1.160664     -1.160682
  36       -1.159660     -1.159679
  37        0.110174      0.110166
  38        0.112017      0.112009
  39        0.112017      0.112009
  40        0.113377      0.113369
  41        0.115906      0.115897
  42        0.115906      0.115897
  43        0.203122      0.203115
  44        0.207936      0.207929
  45        0.212865      0.212858
  46        0.460434      0.460427
  47        0.460434      0.460427
  48        0.465531      0.465524
  49        7.673683      7.673587
  50        8.544389      8.544538
  51        8.544399      8.545039
  52        8.544769      8.544272
  53        9.567894      9.568829
  54        9.570886      9.571063
  55        9.891877      9.888469
  56        9.894998      9.897702
  57        9.897863      9.905526
  58       10.456155     10.452994
  59       10.472847     10.472165
  60       10.497946     10.507075
  61       11.211892     11.210059
  62       11.239681     11.220856
  63       11.305555     11.263815
  64       11.511324     11.366414
 
  0.4081633E-01  0.0000000E+00  0.4081633E-01  0.3333333E-02
   1      -35.648518    -35.648420
   2      -35.608668    -35.608570
   3      -35.608668    -35.608570
   4      -35.608519    -35.608420
   5      -19.741057    -19.741072
   6      -19.741057    -19.741072
   7      -19.739710    -19.739725
   8      -19.424272    -19.424300
   9      -18.977575    -18.977602
  10      -18.972151    -18.972178
  11      -18.972151    -18.972178
  12      -18.681234    -18.681260
  13      -16.683180    -16.683094
  14      -16.683180    -16.683094
  15      -16.682991    -16.682905
  16      -16.678964    -16.678878
  17      -16.678964    -16.678878
  18      -16.675961    -16.675875
  19      -16.588297    -16.588209
  20      -16.587798    -16.587710
  21      -16.582449    -16.582360
  22      -15.948034    -15.947958
  23      -15.948034    -15.947958
  24      -15.947905    -15.947829
  25       -2.171479     -2.171503
  26       -2.167308     -2.167332
  27       -2.167308     -2.167332
  28       -1.585728     -1.585751
  29       -1.581709     -1.581732
  30       -1.577578     -1.577601
  31       -1.168824     -1.168843
  32       -1.168824     -1.168843
  33       -1.165061     -1.165079
  34       -1.159755     -1.159774
  35       -1.159755     -1.159774
  36       -1.157981     -1.157999
  37        0.106766      0.106758
  38        0.110037      0.110029
  39        0.110037      0.110029
  40        0.112453      0.112444
  41        0.116954      0.116946
  42        0.116954      0.116946
  43        0.195873      0.195865
  44        0.204414      0.204407
  45        0.213152      0.213145
  46        0.455511      0.455504
  47        0.455511      0.455504
  48        0.464543      0.464536
  49        7.686693      7.686698
  50        8.547933      8.548146
  51        8.548738      8.548392
  52        8.549728      8.548178
  53        9.568764      9.572220
  54        9.579089      9.575719
  55        9.896004      9.895738
  56        9.905348      9.899092
  57        9.906275      9.903524
  58       10.450879     10.452137
  59       10.475376     10.467144
  60       10.479451     10.505169
  61       11.206462     11.214011
  62       11.230687     11.226942
  63       11.335633     11.330058
  64       11.422842     11.399287
 
  0.5102041E-01  0.0000000E+00  0.5102041E-01  0.3333333E-02
   1      -35.648327    -35.648229
   2      -35.608771    -35.608672
   3      -35.608771    -35.608672
   4      -35.608520    -35.608421
   5      -19.739174    -19.739189
   6      -19.739174    -19.739189
   7      -19.736890    -19.736905
   8      -19.426028    -19.426056
   9      -18.982333    -18.982360
  10      -18.973898    -18.973925
  11      -18.973898    -18.973925
  12      -18.682533    -18.682559
  13      -16.683026    -16.682940
  14      -16.683026    -16.682940
  15      -16.682685    -16.682599
  16      -16.676445    -16.676359
  17      -16.676445    -16.676359
  18      -16.671692    -16.671606
  19      -16.588712    -16.588624
  20      -16.587935    -16.587847
  21      -16.579584    -16.579496
  22      -15.950781    -15.950705
  23      -15.950781    -15.950705
  24      -15.950531    -15.950455
  25       -2.167131     -2.167155
  26       -2.160613     -2.160637
  27       -2.160613     -2.160637
  28       -1.584455     -1.584477
  29       -1.578163     -1.578186
  30       -1.571723     -1.571746
  31       -1.172718     -1.172737
  32       -1.172718     -1.172737
  33       -1.166839     -1.166857
  34       -1.158577     -1.158596
  35       -1.158577     -1.158596
  36       -1.155815     -1.155834
  37        0.102419      0.102410
  38        0.107472      0.107463
  39        0.107472      0.107463
  40        0.111326      0.111318
  41        0.118299      0.118291
  42        0.118299      0.118291
  43        0.186615      0.186607
  44        0.199901      0.199894
  45        0.213518      0.213511
  46        0.449206      0.449199
  47        0.449206      0.449199
  48        0.463263      0.463256
  49        7.703424      7.703652
  50        8.552954      8.553243
  51        8.553263      8.553386
  52        8.554471      8.554369
  53        9.573113      9.570822
  54        9.575504      9.576335
  55        9.899405      9.895020
  56        9.907788      9.904655
  57        9.981612      9.917653
  58       10.459486     10.445885
  59       10.465860     10.460513
  60       10.905025     10.696608
  61       11.197097     11.200612
  62       11.239370     11.225625
  63       11.297822     11.244603
  64       11.407457     11.340041
 
  0.6122449E-01  0.0000000E+00  0.6122449E-01  0.3333333E-02
   1      -35.648072    -35.647974
   2      -35.608901    -35.608803
   3      -35.608901    -35.608803
   4      -35.608522    -35.608423
   5      -19.737036    -19.737051
   6      -19.737036    -19.737051
   7      -19.733446    -19.733461
   8      -19.428148    -19.428176
   9      -18.988091    -18.988118
  10      -18.976014    -18.976041
  11      -18.976014    -18.976041
  12      -18.683832    -18.683858
  13      -16.682820    -16.682734
  14      -16.682820    -16.682734
  15      -16.682313    -16.682227
  16      -16.673423    -16.673337
  17      -16.673423    -16.673337
  18      -16.666534    -16.666449
  19      -16.589170    -16.589081
  20      -16.588083    -16.587995
  21      -16.576033    -16.575945
  22      -15.954124    -15.954049
  23      -15.954124    -15.954049
  24      -15.953730    -15.953654
  25       -2.161838     -2.161862
  26       -2.152452     -2.152476
  27       -2.152452     -2.152476
  28       -1.582913     -1.582935
  29       -1.573832     -1.573855
  30       -1.564579     -1.564602
  31       -1.177433     -1.177451
  32       -1.177433     -1.177451
  33       -1.168979     -1.168998
  34       -1.157127     -1.157146
  35       -1.157127     -1.157146
  36       -1.153168     -1.153186
  37        0.097117      0.097109
  38        0.104325      0.104316
  39        0.104325      0.104316
  40        0.109952      0.109943
  41        0.119912      0.119904
  42        0.119912      0.119904
  43        0.175396      0.175389
  44        0.194410      0.194402
  45        0.213963      0.213956
  46        0.441540      0.441533
  47        0.441540      0.441533
  48        0.461684      0.461677
  49        7.723824      7.723839
  50        8.558520      8.558352
  51        8.559743      8.559841
  52        8.560480      8.560182
  53        9.569595      9.569419
  54        9.581595      9.582107
  55        9.901813      9.902192
  56        9.912776      9.912285
  57        9.922864      9.915867
  58       10.441898     10.439968
  59       10.463057     10.449498
  60       10.485273     10.481974
  61       11.174893     11.187449
  62       11.209663     11.211220
  63       11.275083     11.291833
  64       11.370648     11.448887
 
  0.7142857E-01  0.0000000E+00  0.7142857E-01  0.3333333E-02
   1      -35.647790    -35.647692
   2      -35.609033    -35.608934
   3      -35.609033    -35.608934
   4      -35.608542    -35.608443
   5      -19.734155    -19.734170
   6      -19.734155    -19.734170
   7      -19.729645    -19.729660
   8      -19.430512    -19.430541
   9      -18.994944    -18.994971
  10      -18.978487    -18.978514
  11      -18.978487    -18.978514
  12      -18.685810    -18.685835
  13      -16.682520    -16.682433
  14      -16.682520    -16.682433
  15      -16.681877    -16.681791
  16      -16.669828    -16.669742
  17      -16.669828    -16.669742
  18      -16.660556    -16.660471
  19      -16.589696    -16.589607
  20      -16.588224    -16.588135
  21      -16.572006    -16.571919
  22      -15.958013    -15.957937
  23      -15.958013    -15.957937
  24      -15.957500    -15.957425
  25       -2.155617     -2.155641
  26       -2.142837     -2.142861
  27       -2.142837     -2.142861
  28       -1.581117     -1.581139
  29       -1.568723     -1.568746
  30       -1.556174     -1.556196
  31       -1.182937     -1.182956
  32       -1.182937     -1.182956
  33       -1.171464     -1.171483
  34       -1.155389     -1.155407
  35       -1.155389     -1.155407
  36       -1.150039     -1.150057
  37        0.090868      0.090860
  38        0.100601      0.100592
  39        0.100601      0.100592
  40        0.108324      0.108315
  41        0.121823      0.121815
  42        0.121823      0.121815
  43        0.162266      0.162258
  44        0.187982      0.187974
  45        0.214482      0.214475
  46        0.432536      0.432529
  47        0.432536      0.432529
  48        0.459795      0.459788
  49        7.747729      7.747639
  50        8.564938      8.565013
  51        8.567094      8.567331
  52        8.567353      8.567545
  53        9.568156      9.568265
  54        9.583568      9.579845
  55        9.906507      9.906806
  56        9.921846      9.924030
  57        9.934234      9.932719
  58       10.431519     10.435347
  59       10.449890     10.441137
  60       10.483859     10.468737
  61       11.172044     11.169871
  62       11.214574     11.218269
  63       11.231813     11.245936
  64       11.437873     11.393723
 
  0.8163265E-01  0.0000000E+00  0.8163265E-01  0.3333333E-02
   1      -35.647474    -35.647376
   2      -35.609201    -35.609103
   3      -35.609201    -35.609103
   4      -35.608543    -35.608444
   5      -19.731085    -19.731100
   6      -19.731085    -19.731100
   7      -19.724968    -19.724983
   8      -19.433315    -19.433343
   9      -19.002539    -19.002566
  10      -18.981412    -18.981439
  11      -18.981412    -18.981439
  12      -18.687997    -18.688023
  13      -16.682189    -16.682103
  14      -16.682189    -16.682103
  15      -16.681374    -16.681287
  16      -16.665759    -16.665673
  17      -16.665759    -16.665673
  18      -16.653704    -16.653619
  19      -16.590248    -16.590160
  20      -16.588434    -16.588346
  21      -16.567415    -16.567327
  22      -15.962526    -15.962450
  23      -15.962526    -15.962450
  24      -15.961826    -15.961750
  25       -2.148477     -2.148501
  26       -2.131786     -2.131810
  27       -2.131786     -2.131810
  28       -1.579081     -1.579104
  29       -1.562834     -1.562857
  30       -1.546518     -1.546541
  31       -1.189209     -1.189228
  32       -1.189209     -1.189228
  33       -1.174255     -1.174274
  34       -1.153363     -1.153381
  35       -1.153363     -1.153381
  36       -1.146427     -1.146446
  37        0.083682      0.083673
  38        0.096257      0.096249
  39        0.096257      0.096249
  40        0.106453      0.106445
  41        0.123985      0.123977
  42        0.123985      0.123977
  43        0.147285      0.147277
  44        0.180567      0.180560
  45        0.215073      0.215066
  46        0.422190      0.422183
  47        0.422190      0.422183
  48        0.457591      0.457584
  49        7.775130      7.774986
  50        8.572491      8.572300
  51        8.575686      8.575714
  52        8.575576      8.576189
  53        9.568354      9.569345
  54        9.590220      9.584518
  55        9.911311      9.910192
  56        9.939197      9.931687
  57        9.945804      9.935379
  58       10.428012     10.425723
  59       10.436278     10.431030
  60       10.477209     10.445186
  61       11.177148     11.159960
  62       11.232591     11.177069
  63       11.283688     11.259943
  64       11.437625     11.489185
 
  0.9183673E-01  0.0000000E+00  0.9183673E-01  0.3333333E-02
   1      -35.647133    -35.647035
   2      -35.609354    -35.609256
   3      -35.609354    -35.609256
   4      -35.608549    -35.608450
   5      -19.727375    -19.727390
   6      -19.727375    -19.727390
   7      -19.719679    -19.719694
   8      -19.436431    -19.436459
   9      -19.011084    -19.011110
  10      -18.984339    -18.984365
  11      -18.984339    -18.984365
  12      -18.690764    -18.690790
  13      -16.681738    -16.681652
  14      -16.681738    -16.681652
  15      -16.680806    -16.680720
  16      -16.661169    -16.661084
  17      -16.661169    -16.661084
  18      -16.646102    -16.646017
  19      -16.590878    -16.590790
  20      -16.588695    -16.588607
  21      -16.562304    -16.562216
  22      -15.967505    -15.967429
  23      -15.967505    -15.967429
  24      -15.966704    -15.966628
  25       -2.140437     -2.140461
  26       -2.119313     -2.119336
  27       -2.119313     -2.119336
  28       -1.576820     -1.576842
  29       -1.556178     -1.556200
  30       -1.535624     -1.535646
  31       -1.196207     -1.196226
  32       -1.196207     -1.196226
  33       -1.177355     -1.177373
  34       -1.151026     -1.151044
  35       -1.151026     -1.151044
  36       -1.142334     -1.142352
  37        0.075570      0.075561
  38        0.091296      0.091287
  39        0.091296      0.091287
  40        0.104336      0.104328
  41        0.126411      0.126403
  42        0.126411      0.126403
  43        0.130522      0.130514
  44        0.172216      0.172208
  45        0.215733      0.215726
  46        0.410608      0.410600
  47        0.410608      0.410600
  48        0.455060      0.455053
  49        7.805681      7.805671
  50        8.582899      8.581026
  51        8.585165      8.585041
  52        8.585360      8.585110
  53        9.569307      9.575059
  54        9.594019      9.590683
  55        9.925504      9.916227
  56        9.949754      9.946893
  57       10.066604      9.960251
  58       10.421475     10.419060
  59       10.441681     10.429816
  60       10.556356     10.460777
  61       11.205281     11.157149
  62       11.253684     11.214596
  63       11.339438     11.290045
  64       11.411989     11.370238
 
  0.1020408E+00  0.0000000E+00  0.1020408E+00  0.3333333E-02
   1      -35.646755    -35.646657
   2      -35.609547    -35.609448
   3      -35.609547    -35.609448
   4      -35.608557    -35.608459
   5      -19.723274    -19.723290
   6      -19.723274    -19.723290
   7      -19.713785    -19.713800
   8      -19.439840    -19.439867
   9      -19.020467    -19.020492
  10      -18.987934    -18.987960
  11      -18.987934    -18.987960
  12      -18.693882    -18.693907
  13      -16.681295    -16.681208
  14      -16.681295    -16.681208
  15      -16.680175    -16.680089
  16      -16.656117    -16.656032
  17      -16.656117    -16.656032
  18      -16.637776    -16.637691
  19      -16.591524    -16.591435
  20      -16.588987    -16.588899
  21      -16.556673    -16.556585
  22      -15.973073    -15.972997
  23      -15.973073    -15.972997
  24      -15.972124    -15.972048
  25       -2.131519     -2.131543
  26       -2.105440     -2.105464
  27       -2.105440     -2.105464
  28       -1.574345     -1.574367
  29       -1.548755     -1.548778
  30       -1.523507     -1.523529
  31       -1.203905     -1.203923
  32       -1.203905     -1.203923
  33       -1.180723     -1.180741
  34       -1.148383     -1.148402
  35       -1.148383     -1.148402
  36       -1.137759     -1.137777
  37        0.066541      0.066532
  38        0.085689      0.085680
  39        0.085689      0.085680
  40        0.101970      0.101961
  41        0.112054      0.112045
  42        0.129074      0.129066
  43        0.129074      0.129066
  44        0.162946      0.162938
  45        0.216457      0.216450
  46        0.397741      0.397734
  47        0.397741      0.397734
  48        0.452195      0.452188
  49        7.839496      7.839532
  50        8.590390      8.590970
  51        8.595617      8.595545
  52        8.595768      8.596237
  53        9.575724      9.578252
  54        9.595246      9.598117
  55        9.927684      9.928628
  56        9.958680      9.957531
  57        9.974039     10.014869
  58       10.408974     10.410514
  59       10.431950     10.446139
  60       10.608251     10.684133
  61       11.115639     11.110568
  62       11.153719     11.185556
  63       11.302623     11.296422
  64       11.376500     11.423554
 
  0.1122449E+00  0.0000000E+00  0.1122449E+00  0.3333333E-02
   1      -35.646307    -35.646209
   2      -35.609749    -35.609650
   3      -35.609749    -35.609650
   4      -35.608556    -35.608457
   5      -19.718792    -19.718807
   6      -19.718792    -19.718807
   7      -19.707288    -19.707303
   8      -19.443518    -19.443546
   9      -19.030387    -19.030412
  10      -18.991705    -18.991731
  11      -18.991705    -18.991731
  12      -18.696777    -18.696803
  13      -16.680781    -16.680695
  14      -16.680781    -16.680695
  15      -16.679463    -16.679377
  16      -16.650632    -16.650547
  17      -16.650632    -16.650547
  18      -16.628744    -16.628659
  19      -16.592081    -16.591993
  20      -16.589225    -16.589136
  21      -16.550499    -16.550411
  22      -15.979148    -15.979072
  23      -15.979148    -15.979072
  24      -15.978064    -15.977988
  25       -2.121745     -2.121769
  26       -2.090190     -2.090213
  27       -2.090190     -2.090213
  28       -1.571669     -1.571691
  29       -1.540569     -1.540592
  30       -1.510176     -1.510198
  31       -1.212258     -1.212277
  32       -1.212258     -1.212277
  33       -1.184305     -1.184324
  34       -1.145418     -1.145436
  35       -1.145418     -1.145436
  36       -1.132700     -1.132719
  37        0.056607      0.056598
  38        0.079422      0.079413
  39        0.079422      0.079413
  40        0.091963      0.091954
  41        0.099349      0.099340
  42        0.131956      0.131948
  43        0.131956      0.131948
  44        0.152781      0.152773
  45        0.217244      0.217237
  46        0.383675      0.383667
  47        0.383675      0.383667
  48        0.448992      0.448985
  49        7.876461      7.876510
  50        8.600370      8.600389
  51        8.607210      8.607013
  52        8.607521      8.607232
  53        9.571265      9.571915
  54        9.599601      9.601245
  55        9.932099      9.929150
  56        9.976057      9.972527
  57        9.977299      9.976790
  58       10.395294     10.396014
  59       10.432187     10.417010
  60       10.432570     10.515177
  61       11.083052     11.109464
  62       11.172878     11.156944
  63       11.243836     11.224607
  64       11.317737     11.283683
 
  0.1224490E+00  0.0000000E+00  0.1224490E+00  0.3333333E-02
   1      -35.645857    -35.645759
   2      -35.609966    -35.609867
   3      -35.609966    -35.609867
   4      -35.608570    -35.608472
   5      -19.713943    -19.713958
   6      -19.713943    -19.713958
   7      -19.700200    -19.700215
   8      -19.447443    -19.447470
   9      -19.041301    -19.041326
  10      -18.995750    -18.995776
  11      -18.995750    -18.995776
  12      -18.700629    -18.700654
  13      -16.680210    -16.680124
  14      -16.680210    -16.680124
  15      -16.678710    -16.678623
  16      -16.644735    -16.644650
  17      -16.644735    -16.644650
  18      -16.619126    -16.619041
  19      -16.592703    -16.592614
  20      -16.589581    -16.589492
  21      -16.543907    -16.543820
  22      -15.985728    -15.985652
  23      -15.985728    -15.985652
  24      -15.984539    -15.984463
  25       -2.111139     -2.111163
  26       -2.073587     -2.073610
  27       -2.073587     -2.073610
  28       -1.568821     -1.568843
  29       -1.531631     -1.531653
  30       -1.495674     -1.495696
  31       -1.221224     -1.221243
  32       -1.221224     -1.221243
  33       -1.188117     -1.188135
  34       -1.142115     -1.142134
  35       -1.142115     -1.142134
  36       -1.127160     -1.127179
  37        0.045782      0.045773
  38        0.070331      0.070323
  39        0.072477      0.072468
  40        0.072477      0.072468
  41        0.096468      0.096460
  42        0.135038      0.135030
  43        0.135039      0.135030
  44        0.141739      0.141731
  45        0.218086      0.218079
  46        0.368445      0.368437
  47        0.368445      0.368437
  48        0.445429      0.445421
  49        7.916568      7.916776
  50        8.611439      8.612351
  51        8.619517      8.619445
  52        8.620153      8.619847
  53        9.573404      9.577340
  54        9.606828      9.612493
  55        9.937287      9.952851
  56        9.988190      9.994834
  57       10.006767     10.102254
  58       10.383935     10.394109
  59       10.404319     10.396268
  60       10.490838     10.540114