Fluorite (band)                         
   1.00000000000000     
     5.492037    0.000000    0.000000
     0.000000    5.492037    0.000000
     0.000000    0.000000    5.492037
   Ca   F 
     4     8
Direct
  0.000000  0.000000  0.000000
  0.000000  0.500000  0.500000
  0.500000  0.000000  0.500000
  0.500000  0.500000  0.000000
  0.250000  0.750000  0.250000
  0.250000  0.750000  0.750000
  0.250000  0.250000  0.750000
  0.250000  0.250000  0.250000
  0.750000  0.750000  0.750000
  0.750000  0.750000  0.250000
  0.750000  0.250000  0.250000
  0.750000  0.250000  0.750000
 
   40   40   40
 0.33432     0.38965     0.52473     0.65401     0.71855     0.70637     0.58977     0.33627     0.10536     0.23890E-01
 0.63473E-02 0.29758E-02 0.23679E-02 0.21753E-02 0.20070E-02 0.18538E-02 0.16201E-02 0.13046E-02 0.99771E-03 0.77719E-03
 0.69575E-03 0.77719E-03 0.99771E-03 0.13046E-02 0.16201E-02 0.18538E-02 0.20070E-02 0.21753E-02 0.23679E-02 0.29758E-02
 0.63473E-02 0.23890E-01 0.10536     0.33627     0.58977     0.70637     0.71855     0.65401     0.52473     0.38965    
 0.38965     0.44010     0.55901     0.66931     0.72106     0.69916     0.56922     0.30660     0.91022E-01 0.20828E-01
 0.59661E-02 0.30881E-02 0.25985E-02 0.24192E-02 0.22277E-02 0.20405E-02 0.17676E-02 0.14205E-02 0.10919E-02 0.86095E-03
 0.77719E-03 0.86095E-03 0.10919E-02 0.14205E-02 0.17676E-02 0.20405E-02 0.22277E-02 0.24192E-02 0.25985E-02 0.30881E-02
 0.59661E-02 0.20828E-01 0.91022E-01 0.30660     0.56922     0.69916     0.72106     0.66931     0.55901     0.44010    
 0.52473     0.55901     0.63540     0.70130     0.72139     0.67046     0.49941     0.22579     0.59888E-01 0.14795E-01
 0.53557E-02 0.35622E-02 0.33686E-02 0.32061E-02 0.29341E-02 0.26311E-02 0.22297E-02 0.17730E-02 0.13641E-02 0.10919E-02
 0.99771E-03 0.10919E-02 0.13641E-02 0.17730E-02 0.22297E-02 0.26311E-02 0.29341E-02 0.32061E-02 0.33686E-02 0.35622E-02
 0.53557E-02 0.14795E-01 0.59888E-01 0.22579     0.49941     0.67046     0.72139     0.70130     0.63540     0.55901    
 0.65401     0.66931     0.70130     0.72119     0.70012     0.59704     0.36589     0.12739     0.32526E-01 0.10090E-01
 0.52906E-02 0.46622E-02 0.47955E-02 0.45970E-02 0.41802E-02 0.36642E-02 0.30205E-02 0.23423E-02 0.17730E-02 0.14205E-02
 0.13046E-02 0.14205E-02 0.17730E-02 0.23423E-02 0.30205E-02 0.36642E-02 0.41802E-02 0.45970E-02 0.47955E-02 0.46622E-02
 0.52906E-02 0.10090E-01 0.32526E-01 0.12739     0.36589     0.59704     0.70012     0.72119     0.70130     0.66931    
 0.71855     0.72106     0.72139     0.70012     0.62353     0.44230     0.19584     0.56720E-01 0.17126E-01 0.78624E-02
 0.61461E-02 0.64973E-02 0.67632E-02 0.64459E-02 0.58474E-02 0.50332E-02 0.40289E-02 0.30205E-02 0.22297E-02 0.17676E-02
 0.16201E-02 0.17676E-02 0.22297E-02 0.30205E-02 0.40289E-02 0.50332E-02 0.58474E-02 0.64459E-02 0.67632E-02 0.64973E-02
 0.61461E-02 0.78624E-02 0.17126E-01 0.56720E-01 0.19584     0.44230     0.62353     0.70012     0.72139     0.72106    
 0.70637     0.69916     0.67046     0.59704     0.44230     0.22420     0.75376E-01 0.24037E-01 0.10662E-01 0.76871E-02
 0.79174E-02 0.86992E-02 0.87896E-02 0.83212E-02 0.75465E-02 0.64246E-02 0.50332E-02 0.36642E-02 0.26311E-02 0.20405E-02
 0.18538E-02 0.20405E-02 0.26311E-02 0.36642E-02 0.50332E-02 0.64246E-02 0.75465E-02 0.83212E-02 0.87896E-02 0.86992E-02
 0.79174E-02 0.76871E-02 0.10662E-01 0.24037E-01 0.75376E-01 0.22420     0.44230     0.59704     0.67046     0.69916    
 0.58977     0.56922     0.49941     0.36589     0.19584     0.75376E-01 0.26990E-01 0.12528E-01 0.89099E-02 0.89727E-02
 0.10046E-01 0.10588E-01 0.10407E-01 0.98360E-02 0.89148E-02 0.75465E-02 0.58474E-02 0.41802E-02 0.29341E-02 0.22277E-02
 0.20070E-02 0.22277E-02 0.29341E-02 0.41802E-02 0.58474E-02 0.75465E-02 0.89148E-02 0.98360E-02 0.10407E-01 0.10588E-01
 0.10046E-01 0.89727E-02 0.89099E-02 0.12528E-01 0.26990E-01 0.75376E-01 0.19584     0.36589     0.49941     0.56922    
 0.33627     0.30660     0.22579     0.12739     0.56720E-01 0.24037E-01 0.12528E-01 0.93825E-02 0.95685E-02 0.10855E-01
 0.11742E-01 0.11856E-01 0.11511E-01 0.10870E-01 0.98360E-02 0.83212E-02 0.64459E-02 0.45970E-02 0.32061E-02 0.24192E-02
 0.21753E-02 0.24192E-02 0.32061E-02 0.45970E-02 0.64459E-02 0.83212E-02 0.98360E-02 0.10870E-01 0.11511E-01 0.11856E-01
 0.11742E-01 0.10855E-01 0.95685E-02 0.93825E-02 0.12528E-01 0.24037E-01 0.56720E-01 0.12739     0.22579     0.30660    
 0.10536     0.91022E-01 0.59888E-01 0.32526E-01 0.17126E-01 0.10662E-01 0.89099E-02 0.95685E-02 0.11136E-01 0.12325E-01
 0.12727E-01 0.12610E-01 0.12204E-01 0.11511E-01 0.10407E-01 0.87896E-02 0.67632E-02 0.47955E-02 0.33686E-02 0.25985E-02
 0.23679E-02 0.25985E-02 0.33686E-02 0.47955E-02 0.67632E-02 0.87896E-02 0.10407E-01 0.11511E-01 0.12204E-01 0.12610E-01
 0.12727E-01 0.12325E-01 0.11136E-01 0.95685E-02 0.89099E-02 0.10662E-01 0.17126E-01 0.32526E-01 0.59888E-01 0.91022E-01
 0.23890E-01 0.20828E-01 0.14795E-01 0.10090E-01 0.78624E-02 0.76871E-02 0.89727E-02 0.10855E-01 0.12325E-01 0.13026E-01
 0.13180E-01 0.13022E-01 0.12610E-01 0.11856E-01 0.10588E-01 0.86992E-02 0.64973E-02 0.46622E-02 0.35622E-02 0.30881E-02
 0.29758E-02 0.30881E-02 0.35622E-02 0.46622E-02 0.64973E-02 0.86992E-02 0.10588E-01 0.11856E-01 0.12610E-01 0.13022E-01
 0.13180E-01 0.13026E-01 0.12325E-01 0.10855E-01 0.89727E-02 0.76871E-02 0.78624E-02 0.10090E-01 0.14795E-01 0.20828E-01
 0.63473E-02 0.59661E-02 0.53557E-02 0.52906E-02 0.61461E-02 0.79174E-02 0.10046E-01 0.11742E-01 0.12727E-01 0.13180E-01
 0.13307E-01 0.13180E-01 0.12727E-01 0.11742E-01 0.10046E-01 0.79174E-02 0.61461E-02 0.52906E-02 0.53557E-02 0.59661E-02
 0.63473E-02 0.59661E-02 0.53557E-02 0.52906E-02 0.61461E-02 0.79174E-02 0.10046E-01 0.11742E-01 0.12727E-01 0.13180E-01
 0.13307E-01 0.13180E-01 0.12727E-01 0.11742E-01 0.10046E-01 0.79174E-02 0.61461E-02 0.52906E-02 0.53557E-02 0.59661E-02
 0.29758E-02 0.30881E-02 0.35622E-02 0.46622E-02 0.64973E-02 0.86992E-02 0.10588E-01 0.11856E-01 0.12610E-01 0.13022E-01
 0.13180E-01 0.13026E-01 0.12325E-01 0.10855E-01 0.89727E-02 0.76871E-02 0.78624E-02 0.10090E-01 0.14795E-01 0.20828E-01
 0.23890E-01 0.20828E-01 0.14795E-01 0.10090E-01 0.78624E-02 0.76871E-02 0.89727E-02 0.10855E-01 0.12325E-01 0.13026E-01
 0.13180E-01 0.13022E-01 0.12610E-01 0.11856E-01 0.10588E-01 0.86992E-02 0.64973E-02 0.46622E-02 0.35622E-02 0.30881E-02
 0.23679E-02 0.25985E-02 0.33686E-02 0.47955E-02 0.67632E-02 0.87896E-02 0.10407E-01 0.11511E-01 0.12204E-01 0.12610E-01
 0.12727E-01 0.12325E-01 0.11136E-01 0.95685E-02 0.89099E-02 0.10662E-01 0.17126E-01 0.32526E-01 0.59888E-01 0.91022E-01
 0.10536     0.91022E-01 0.59888E-01 0.32526E-01 0.17126E-01 0.10662E-01 0.89099E-02 0.95685E-02 0.11136E-01 0.12325E-01
 0.12727E-01 0.12610E-01 0.12204E-01 0.11511E-01 0.10407E-01 0.87896E-02 0.67632E-02 0.47955E-02 0.33686E-02 0.25985E-02
 0.21753E-02 0.24192E-02 0.32061E-02 0.45970E-02 0.64459E-02 0.83212E-02 0.98360E-02 0.10870E-01 0.11511E-01 0.11856E-01
 0.11742E-01 0.10855E-01 0.95685E-02 0.93825E-02 0.12528E-01 0.24037E-01 0.56720E-01 0.12739     0.22579     0.30660    
 0.33627     0.30660     0.22579     0.12739     0.56720E-01 0.24037E-01 0.12528E-01 0.93825E-02 0.95685E-02 0.10855E-01
 0.11742E-01 0.11856E-01 0.11511E-01 0.10870E-01 0.98360E-02 0.83212E-02 0.64459E-02 0.45970E-02 0.32061E-02 0.24192E-02
 0.20070E-02 0.22277E-02 0.29341E-02 0.41802E-02 0.58474E-02 0.75465E-02 0.89148E-02 0.98360E-02 0.10407E-01 0.10588E-01
 0.10046E-01 0.89727E-02 0.89099E-02 0.12528E-01 0.26990E-01 0.75376E-01 0.19584     0.36589     0.49941     0.56922    
 0.58977     0.56922     0.49941     0.36589     0.19584     0.75376E-01 0.26990E-01 0.12528E-01 0.89099E-02 0.89727E-02
 0.10046E-01 0.10588E-01 0.10407E-01 0.98360E-02 0.89148E-02 0.75465E-02 0.58474E-02 0.41802E-02 0.29341E-02 0.22277E-02
 0.18538E-02 0.20405E-02 0.26311E-02 0.36642E-02 0.50332E-02 0.64246E-02 0.75465E-02 0.83212E-02 0.87896E-02 0.86992E-02
 0.79174E-02 0.76871E-02 0.10662E-01 0.24037E-01 0.75376E-01 0.22420     0.44230     0.59704     0.67046     0.69916    
 0.70637     0.69916     0.67046     0.59704     0.44230     0.22420     0.75376E-01 0.24037E-01 0.10662E-01 0.76871E-02
 0.79174E-02 0.86992E-02 0.87896E-02 0.83212E-02 0.75465E-02 0.64246E-02 0.50332E-02 0.36642E-02 0.26311E-02 0.20405E-02
 0.16201E-02 0.17676E-02 0.22297E-02 0.30205E-02 0.40289E-02 0.50332E-02 0.58474E-02 0.64459E-02 0.67632E-02 0.64973E-02
 0.61461E-02 0.78624E-02 0.17126E-01 0.56720E-01 0.19584     0.44230     0.62353     0.70012     0.72139     0.72106    
 0.71855     0.72106     0.72139     0.70012     0.62353     0.44230     0.19584     0.56720E-01 0.17126E-01 0.78624E-02
 0.61461E-02 0.64973E-02 0.67632E-02 0.64459E-02 0.58474E-02 0.50332E-02 0.40289E-02 0.30205E-02 0.22297E-02 0.17676E-02
 0.13046E-02 0.14205E-02 0.17730E-02 0.23423E-02 0.30205E-02 0.36642E-02 0.41802E-02 0.45970E-02 0.47955E-02 0.46622E-02
 0.52906E-02 0.10090E-01 0.32526E-01 0.12739     0.36589     0.59704     0.70012     0.72119     0.70130     0.66931    
 0.65401     0.66931     0.70130     0.72119     0.70012     0.59704     0.36589     0.12739     0.32526E-01 0.10090E-01
 0.52906E-02 0.46622E-02 0.47955E-02 0.45970E-02 0.41802E-02 0.36642E-02 0.30205E-02 0.23423E-02 0.17730E-02 0.14205E-02
 0.99771E-03 0.10919E-02 0.13641E-02 0.17730E-02 0.22297E-02 0.26311E-02 0.29341E-02 0.32061E-02 0.33686E-02 0.35622E-02
 0.53557E-02 0.14795E-01 0.59888E-01 0.22579     0.49941     0.67046     0.72139     0.70130     0.63540     0.55901    
 0.52473     0.55901     0.63540     0.70130     0.72139     0.67046     0.49941     0.22579     0.59888E-01 0.14795E-01
 0.53557E-02 0.35622E-02 0.33686E-02 0.32061E-02 0.29341E-02 0.26311E-02 0.22297E-02 0.17730E-02 0.13641E-02 0.10919E-02
 0.77719E-03 0.86095E-03 0.10919E-02 0.14205E-02 0.17676E-02 0.20405E-02 0.22277E-02 0.24192E-02 0.25985E-02 0.30881E-02
 0.59661E-02 0.20828E-01 0.91022E-01 0.30660     0.56922     0.69916     0.72106     0.66931     0.55901     0.44010    
 0.38965     0.44010     0.55901     0.66931     0.72106     0.69916     0.56922     0.30660     0.91022E-01 0.20828E-01
 0.59661E-02 0.30881E-02 0.25985E-02 0.24192E-02 0.22277E-02 0.20405E-02 0.17676E-02 0.14205E-02 0.10919E-02 0.86095E-03
 0.69575E-03 0.77719E-03 0.99771E-03 0.13046E-02 0.16201E-02 0.18538E-02 0.20070E-02 0.21753E-02 0.23679E-02 0.29758E-02
 0.63473E-02 0.23890E-01 0.10536     0.33627     0.58977     0.70637     0.71855     0.65401     0.52473     0.38965    
 0.33432     0.38965     0.52473     0.65401     0.71855     0.70637     0.58977     0.33627     0.10536     0.23890E-01
 0.63473E-02 0.29758E-02 0.23679E-02 0.21753E-02 0.20070E-02 0.18538E-02 0.16201E-02 0.13046E-02 0.99771E-03 0.77719E-03
 0.77719E-03 0.86095E-03 0.10919E-02 0.14205E-02 0.17676E-02 0.20405E-02 0.22277E-02 0.24192E-02 0.25985E-02 0.30881E-02
 0.59661E-02 0.20828E-01 0.91022E-01 0.30660     0.56922     0.69916     0.72106     0.66931     0.55901     0.44010    
 0.38965     0.44010     0.55901     0.66931     0.72106     0.69916     0.56922     0.30660     0.91022E-01 0.20828E-01
 0.59661E-02 0.30881E-02 0.25985E-02 0.24192E-02 0.22277E-02 0.20405E-02 0.17676E-02 0.14205E-02 0.10919E-02 0.86095E-03
 0.99771E-03 0.10919E-02 0.13641E-02 0.17730E-02 0.22297E-02 0.26311E-02 0.29341E-02 0.32061E-02 0.33686E-02 0.35622E-02
 0.53557E-02 0.14795E-01 0.59888E-01 0.22579     0.49941     0.67046     0.72139     0.70130     0.63540     0.55901    
 0.52473     0.55901     0.63540     0.70130     0.72139     0.67046     0.49941     0.22579     0.59888E-01 0.14795E-01
 0.53557E-02 0.35622E-02 0.33686E-02 0.32061E-02 0.29341E-02 0.26311E-02 0.22297E-02 0.17730E-02 0.13641E-02 0.10919E-02
 0.13046E-02 0.14205E-02 0.17730E-02 0.23423E-02 0.30205E-02 0.36642E-02 0.41802E-02 0.45970E-02 0.47955E-02 0.46622E-02
 0.52906E-02 0.10090E-01 0.32526E-01 0.12739     0.36589     0.59704     0.70012     0.72119     0.70130     0.66931    
 0.65401     0.66931     0.70130     0.72119     0.70012     0.59704     0.36589     0.12739     0.32526E-01 0.10090E-01
 0.52906E-02 0.46622E-02 0.47955E-02 0.45970E-02 0.41802E-02 0.36642E-02 0.30205E-02 0.23423E-02 0.17730E-02 0.14205E-02
 0.16201E-02 0.17676E-02 0.22297E-02 0.30205E-02 0.40289E-02 0.50332E-02 0.58474E-02 0.64459E-02 0.67632E-02 0.64973E-02
 0.61461E-02 0.78624E-02 0.17126E-01 0.56720E-01 0.19584     0.44230     0.62353     0.70012     0.72139     0.72106    
 0.71855     0.72106     0.72139     0.70012     0.62353     0.44230     0.19584     0.56720E-01 0.17126E-01 0.78624E-02
 0.61461E-02 0.64973E-02 0.67632E-02 0.64459E-02 0.58474E-02 0.50332E-02 0.40289E-02 0.30205E-02 0.22297E-02 0.17676E-02
 0.18538E-02 0.20405E-02 0.26311E-02 0.36642E-02 0.50332E-02 0.64246E-02 0.75465E-02 0.83212E-02 0.87896E-02 0.86992E-02
 0.79174E-02 0.76871E-02 0.10662E-01 0.24037E-01 0.75376E-01 0.22420     0.44230     0.59704     0.67046     0.69916    
 0.70637     0.69916     0.67046     0.59704     0.44230     0.22420     0.75376E-01 0.24037E-01 0.10662E-01 0.76871E-02
 0.79174E-02 0.86992E-02 0.87896E-02 0.83212E-02 0.75465E-02 0.64246E-02 0.50332E-02 0.36642E-02 0.26311E-02 0.20405E-02
 0.20070E-02 0.22277E-02 0.29341E-02 0.41802E-02 0.58474E-02 0.75465E-02 0.89148E-02 0.98360E-02 0.10407E-01 0.10588E-01
 0.10046E-01 0.89727E-02 0.89099E-02 0.12528E-01 0.26990E-01 0.75376E-01 0.19584     0.36589     0.49941     0.56922    
 0.58977     0.56922     0.49941     0.36589     0.19584     0.75376E-01 0.26990E-01 0.12528E-01 0.89099E-02 0.89727E-02
 0.10046E-01 0.10588E-01 0.10407E-01 0.98360E-02 0.89148E-02 0.75465E-02 0.58474E-02 0.41802E-02 0.29341E-02 0.22277E-02
 0.21753E-02 0.24192E-02 0.32061E-02 0.45970E-02 0.64459E-02 0.83212E-02 0.98360E-02 0.10870E-01 0.11511E-01 0.11856E-01
 0.11742E-01 0.10855E-01 0.95685E-02 0.93825E-02 0.12528E-01 0.24037E-01 0.56720E-01 0.12739     0.22579     0.30660    
 0.33627     0.30660     0.22579     0.12739     0.56720E-01 0.24037E-01 0.12528E-01 0.93825E-02 0.95685E-02 0.10855E-01
 0.11742E-01 0.11856E-01 0.11511E-01 0.10870E-01 0.98360E-02 0.83212E-02 0.64459E-02 0.45970E-02 0.32061E-02 0.24192E-02
 0.23679E-02 0.25985E-02 0.33686E-02 0.47955E-02 0.67632E-02 0.87896E-02 0.10407E-01 0.11511E-01 0.12204E-01 0.12610E-01
 0.12727E-01 0.12325E-01 0.11136E-01 0.95685E-02 0.89099E-02 0.10662E-01 0.17126E-01 0.32526E-01 0.59888E-01 0.91022E-01
 0.10536     0.91022E-01 0.59888E-01 0.32526E-01 0.17126E-01 0.10662E-01 0.89099E-02 0.95685E-02 0.11136E-01 0.12325E-01
 0.12727E-01 0.12610E-01 0.12204E-01 0.11511E-01 0.10407E-01 0.87896E-02 0.67632E-02 0.47955E-02 0.33686E-02 0.25985E-02
 0.29758E-02 0.30881E-02 0.35622E-02 0.46622E-02 0.64973E-02 0.86992E-02 0.10588E-01 0.11856E-01 0.12610E-01 0.13022E-01
 0.13180E-01 0.13026E-01 0.12325E-01 0.10855E-01 0.89727E-02 0.76871E-02 0.78624E-02 0.10090E-01 0.14795E-01 0.20828E-01
 0.23890E-01 0.20828E-01 0.14795E-01 0.10090E-01 0.78624E-02 0.76871E-02 0.89727E-02 0.10855E-01 0.12325E-01 0.13026E-01
 0.13180E-01 0.13022E-01 0.12610E-01 0.11856E-01 0.10588E-01 0.86992E-02 0.64973E-02 0.46622E-02 0.35622E-02 0.30881E-02
 0.63473E-02 0.59661E-02 0.53557E-02 0.52906E-02 0.61461E-02 0.79174E-02 0.10046E-01 0.11742E-01 0.12727E-01 0.13180E-01
 0.13307E-01 0.13180E-01 0.12727E-01 0.11742E-01 0.10046E-01 0.79174E-02 0.61461E-02 0.52906E-02 0.53557E-02 0.59661E-02
 0.63473E-02 0.59661E-02 0.53557E-02 0.52906E-02 0.61461E-02 0.79174E-02 0.10046E-01 0.11742E-01 0.12727E-01 0.13180E-01
 0.13307E-01 0.13180E-01 0.12727E-01 0.11742E-01 0.10046E-01 0.79174E-02 0.61461E-02 0.52906E-02 0.53557E-02 0.59661E-02
 0.23890E-01 0.20828E-01 0.14795E-01 0.10090E-01 0.78624E-02 0.76871E-02 0.89727E-02 0.10855E-01 0.12325E-01 0.13026E-01
 0.13180E-01 0.13022E-01 0.12610E-01 0.11856E-01 0.10588E-01 0.86992E-02 0.64973E-02 0.46622E-02 0.35622E-02 0.30881E-02
 0.29758E-02 0.30881E-02 0.35622E-02 0.46622E-02 0.64973E-02 0.86992E-02 0.10588E-01 0.11856E-01 0.12610E-01 0.13022E-01
 0.13180E-01 0.13026E-01 0.12325E-01 0.10855E-01 0.89727E-02 0.76871E-02 0.78624E-02 0.10090E-01 0.14795E-01 0.20828E-01
 0.10536     0.91022E-01 0.59888E-01 0.32526E-01 0.17126E-01 0.10662E-01 0.89099E-02 0.95685E-02 0.11136E-01 0.12325E-01
 0.12727E-01 0.12610E-01 0.12204E-01 0.11511E-01 0.10407E-01 0.87896E-02 0.67632E-02 0.47955E-02 0.33686E-02 0.25985E-02
 0.23679E-02 0.25985E-02 0.33686E-02 0.47955E-02 0.67632E-02 0.87896E-02 0.10407E-01 0.11511E-01 0.12204E-01 0.12610E-01
 0.12727E-01 0.12325E-01 0.11136E-01 0.95685E-02 0.89099E-02 0.10662E-01 0.17126E-01 0.32526E-01 0.59888E-01 0.91022E-01
 0.33627     0.30660     0.22579     0.12739     0.56720E-01 0.24037E-01 0.12528E-01 0.93825E-02 0.95685E-02 0.10855E-01
 0.11742E-01 0.11856E-01 0.11511E-01 0.10870E-01 0.98360E-02 0.83212E-02 0.64459E-02 0.45970E-02 0.32061E-02 0.24192E-02
 0.21753E-02 0.24192E-02 0.32061E-02 0.45970E-02 0.64459E-02 0.83212E-02 0.98360E-02 0.10870E-01 0.11511E-01 0.11856E-01
 0.11742E-01 0.10855E-01 0.95685E-02 0.93825E-02 0.12528E-01 0.24037E-01 0.56720E-01 0.12739     0.22579     0.30660    
 0.58977     0.56922     0.49941     0.36589     0.19584     0.75376E-01 0.26990E-01 0.12528E-01 0.89099E-02 0.89727E-02
 0.10046E-01 0.10588E-01 0.10407E-01 0.98360E-02 0.89148E-02 0.75465E-02 0.58474E-02 0.41802E-02 0.29341E-02 0.22277E-02
 0.20070E-02 0.22277E-02 0.29341E-02 0.41802E-02 0.58474E-02 0.75465E-02 0.89148E-02 0.98360E-02 0.10407E-01 0.10588E-01
 0.10046E-01 0.89727E-02 0.89099E-02 0.12528E-01 0.26990E-01 0.75376E-01 0.19584     0.36589     0.49941     0.56922    
 0.70637     0.69916     0.67046     0.59704     0.44230     0.22420     0.75376E-01 0.24037E-01 0.10662E-01 0.76871E-02
 0.79174E-02 0.86992E-02 0.87896E-02 0.83212E-02 0.75465E-02 0.64246E-02 0.50332E-02 0.36642E-02 0.26311E-02 0.20405E-02
 0.18538E-02 0.20405E-02 0.26311E-02 0.36642E-02 0.50332E-02 0.64246E-02 0.75465E-02 0.83212E-02 0.87896E-02 0.86992E-02
 0.79174E-02 0.76871E-02 0.10662E-01 0.24037E-01 0.75376E-01 0.22420     0.44230     0.59704     0.67046     0.69916    
 0.71855     0.72106     0.72139     0.70012     0.62353     0.44230     0.19584     0.56720E-01 0.17126E-01 0.78624E-02
 0.61461E-02 0.64973E-02 0.67632E-02 0.64459E-02 0.58474E-02 0.50332E-02 0.40289E-02 0.30205E-02 0.22297E-02 0.17676E-02
 0.16201E-02 0.17676E-02 0.22297E-02 0.30205E-02 0.40289E-02 0.50332E-02 0.58474E-02 0.64459E-02 0.67632E-02 0.64973E-02
 0.61461E-02 0.78624E-02 0.17126E-01 0.56720E-01 0.19584     0.44230     0.62353     0.70012     0.72139     0.72106    
 0.65401     0.66931     0.70130     0.72119     0.70012     0.59704     0.36589     0.12739     0.32526E-01 0.10090E-01
 0.52906E-02 0.46622E-02 0.47955E-02 0.45970E-02 0.41802E-02 0.36642E-02 0.30205E-02 0.23423E-02 0.17730E-02 0.14205E-02
 0.13046E-02 0.14205E-02 0.17730E-02 0.23423E-02 0.30205E-02 0.36642E-02 0.41802E-02 0.45970E-02 0.47955E-02 0.46622E-02
 0.52906E-02 0.10090E-01 0.32526E-01 0.12739     0.36589     0.59704     0.70012     0.72119     0.70130     0.66931    
 0.52473     0.55901     0.63540     0.70130     0.72139     0.67046     0.49941     0.22579     0.59888E-01 0.14795E-01
 0.53557E-02 0.35622E-02 0.33686E-02 0.32061E-02 0.29341E-02 0.26311E-02 0.22297E-02 0.17730E-02 0.13641E-02 0.10919E-02
 0.99771E-03 0.10919E-02 0.13641E-02 0.17730E-02 0.22297E-02 0.26311E-02 0.29341E-02 0.32061E-02 0.33686E-02 0.35622E-02
 0.53557E-02 0.14795E-01 0.59888E-01 0.22579     0.49941     0.67046     0.72139     0.70130     0.63540     0.55901    
 0.38965     0.44010     0.55901     0.66931     0.72106     0.69916     0.56922     0.30660     0.91022E-01 0.20828E-01
 0.59661E-02 0.30881E-02 0.25985E-02 0.24192E-02 0.22277E-02 0.20405E-02 0.17676E-02 0.14205E-02 0.10919E-02 0.86095E-03
 0.77719E-03 0.86095E-03 0.10919E-02 0.14205E-02 0.17676E-02 0.20405E-02 0.22277E-02 0.24192E-02 0.25985E-02 0.30881E-02
 0.59661E-02 0.20828E-01 0.91022E-01 0.30660     0.56922     0.69916     0.72106     0.66931     0.55901     0.44010    
 0.38965     0.44010     0.55901     0.66931     0.72106     0.69916     0.56922     0.30660     0.91022E-01 0.20828E-01
 0.59661E-02 0.30881E-02 0.25985E-02 0.24192E-02 0.22277E-02 0.20405E-02 0.17676E-02 0.14205E-02 0.10919E-02 0.86095E-03
 0.77719E-03 0.86095E-03 0.10919E-02 0.14205E-02 0.17676E-02 0.20405E-02 0.22277E-02 0.24192E-02 0.25985E-02 0.30881E-02
 0.59661E-02 0.20828E-01 0.91022E-01 0.30660     0.56922     0.69916     0.72106     0.66931     0.55901     0.44010    
 0.44010     0.48509     0.58854     0.68210     0.72228     0.69059     0.54659     0.27716     0.78525E-01 0.18375E-01
 0.57449E-02 0.33051E-02 0.29562E-02 0.28045E-02 0.25806E-02 0.23322E-02 0.19853E-02 0.15739E-02 0.12017E-02 0.95000E-03
 0.86095E-03 0.95000E-03 0.12017E-02 0.15739E-02 0.19853E-02 0.23322E-02 0.25806E-02 0.28045E-02 0.29562E-02 0.33051E-02
 0.57449E-02 0.18375E-01 0.78525E-01 0.27716     0.54659     0.69059     0.72228     0.68210     0.58854     0.48509    
 0.55901     0.58854     0.65364     0.70813     0.71900     0.65736     0.47090     0.19917     0.51629E-01 0.13484E-01
 0.54687E-02 0.40774E-02 0.41192E-02 0.40338E-02 0.37133E-02 0.32748E-02 0.26810E-02 0.20467E-02 0.15263E-02 0.12017E-02
 0.10919E-02 0.12017E-02 0.15263E-02 0.20467E-02 0.26810E-02 0.32748E-02 0.37133E-02 0.40338E-02 0.41192E-02 0.40774E-02
 0.54687E-02 0.13484E-01 0.51629E-01 0.19917     0.47090     0.65736     0.71900     0.70813     0.65364     0.58854    
 0.66931     0.68210     0.70813     0.72103     0.69153     0.57476     0.33188     0.10897     0.28392E-01 0.97216E-02
 0.58397E-02 0.57378E-02 0.62550E-02 0.61631E-02 0.56562E-02 0.49006E-02 0.38905E-02 0.28524E-02 0.20467E-02 0.15739E-02
 0.14205E-02 0.15739E-02 0.20467E-02 0.28524E-02 0.38905E-02 0.49006E-02 0.56562E-02 0.61631E-02 0.62550E-02 0.57378E-02
 0.58397E-02 0.97216E-02 0.28392E-01 0.10897     0.33188     0.57476     0.69153     0.72103     0.70813     0.68210    
 0.72106     0.72228     0.71900     0.69153     0.60377     0.40790     0.16809     0.48024E-01 0.15692E-01 0.82941E-02
 0.74620E-02 0.86179E-02 0.93301E-02 0.90101E-02 0.81744E-02 0.69722E-02 0.54442E-02 0.38905E-02 0.26810E-02 0.19853E-02
 0.17676E-02 0.19853E-02 0.26810E-02 0.38905E-02 0.54442E-02 0.69722E-02 0.81744E-02 0.90101E-02 0.93301E-02 0.86179E-02
 0.74620E-02 0.82941E-02 0.15692E-01 0.48024E-01 0.16809     0.40790     0.60377     0.69153     0.71900     0.72228    
 0.69916     0.69059     0.65736     0.57476     0.40790     0.19310     0.62932E-01 0.21311E-01 0.10864E-01 0.92201E-02
 0.10744E-01 0.12561E-01 0.12925E-01 0.12161E-01 0.10844E-01 0.90689E-02 0.69722E-02 0.49006E-02 0.32748E-02 0.23322E-02
 0.20405E-02 0.23322E-02 0.32748E-02 0.49006E-02 0.69722E-02 0.90689E-02 0.10844E-01 0.12161E-01 0.12925E-01 0.12561E-01
 0.10744E-01 0.92201E-02 0.10864E-01 0.21311E-01 0.62932E-01 0.19310     0.40790     0.57476     0.65736     0.69059    
 0.56922     0.54659     0.47090     0.33188     0.16809     0.62932E-01 0.23663E-01 0.12537E-01 0.10620E-01 0.12468E-01
 0.15342E-01 0.16797E-01 0.16491E-01 0.15187E-01 0.13266E-01 0.10844E-01 0.81744E-02 0.56562E-02 0.37133E-02 0.25806E-02
 0.22277E-02 0.25806E-02 0.37133E-02 0.56562E-02 0.81744E-02 0.10844E-01 0.13266E-01 0.15187E-01 0.16491E-01 0.16797E-01
 0.15342E-01 0.12468E-01 0.10620E-01 0.12537E-01 0.23663E-01 0.62932E-01 0.16809     0.33188     0.47090     0.54659    
 0.30660     0.27716     0.19917     0.10897     0.48024E-01 0.21311E-01 0.12537E-01 0.11161E-01 0.13486E-01 0.17298E-01
 0.19990E-01 0.20577E-01 0.19643E-01 0.17761E-01 0.15187E-01 0.12161E-01 0.90101E-02 0.61631E-02 0.40338E-02 0.28045E-02
 0.24192E-02 0.28045E-02 0.40338E-02 0.61631E-02 0.90101E-02 0.12161E-01 0.15187E-01 0.17761E-01 0.19643E-01 0.20577E-01
 0.19990E-01 0.17298E-01 0.13486E-01 0.11161E-01 0.12537E-01 0.21311E-01 0.48024E-01 0.10897     0.19917     0.27716    
 0.91022E-01 0.78525E-01 0.51629E-01 0.28392E-01 0.15692E-01 0.10864E-01 0.10620E-01 0.13486E-01 0.18019E-01 0.21833E-01
 0.23574E-01 0.23480E-01 0.22066E-01 0.19643E-01 0.16491E-01 0.12925E-01 0.93301E-02 0.62550E-02 0.41192E-02 0.29562E-02
 0.25985E-02 0.29562E-02 0.41192E-02 0.62550E-02 0.93301E-02 0.12925E-01 0.16491E-01 0.19643E-01 0.22066E-01 0.23480E-01
 0.23574E-01 0.21833E-01 0.18019E-01 0.13486E-01 0.10620E-01 0.10864E-01 0.15692E-01 0.28392E-01 0.51629E-01 0.78525E-01
 0.20828E-01 0.18375E-01 0.13484E-01 0.97216E-02 0.82941E-02 0.92201E-02 0.12468E-01 0.17298E-01 0.21833E-01 0.24680E-01
 0.25717E-01 0.25249E-01 0.23480E-01 0.20577E-01 0.16797E-01 0.12561E-01 0.86179E-02 0.57378E-02 0.40774E-02 0.33051E-02
 0.30881E-02 0.33051E-02 0.40774E-02 0.57378E-02 0.86179E-02 0.12561E-01 0.16797E-01 0.20577E-01 0.23480E-01 0.25249E-01
 0.25717E-01 0.24680E-01 0.21833E-01 0.17298E-01 0.12468E-01 0.92201E-02 0.82941E-02 0.97216E-02 0.13484E-01 0.18375E-01
 0.59661E-02 0.57449E-02 0.54687E-02 0.58397E-02 0.74620E-02 0.10744E-01 0.15342E-01 0.19990E-01 0.23574E-01 0.25717E-01
 0.26420E-01 0.25717E-01 0.23574E-01 0.19990E-01 0.15342E-01 0.10744E-01 0.74620E-02 0.58397E-02 0.54687E-02 0.57449E-02
 0.59661E-02 0.57449E-02 0.54687E-02 0.58397E-02 0.74620E-02 0.10744E-01 0.15342E-01 0.19990E-01 0.23574E-01 0.25717E-01
 0.26420E-01 0.25717E-01 0.23574E-01 0.19990E-01 0.15342E-01 0.10744E-01 0.74620E-02 0.58397E-02 0.54687E-02 0.57449E-02
 0.30881E-02 0.33051E-02 0.40774E-02 0.57378E-02 0.86179E-02 0.12561E-01 0.16797E-01 0.20577E-01 0.23480E-01 0.25249E-01
 0.25717E-01 0.24680E-01 0.21833E-01 0.17298E-01 0.12468E-01 0.92201E-02 0.82941E-02 0.97216E-02 0.13484E-01 0.18375E-01
 0.20828E-01 0.18375E-01 0.13484E-01 0.97216E-02 0.82941E-02 0.92201E-02 0.12468E-01 0.17298E-01 0.21833E-01 0.24680E-01
 0.25717E-01 0.25249E-01 0.23480E-01 0.20577E-01 0.16797E-01 0.12561E-01 0.86179E-02 0.57378E-02 0.40774E-02 0.33051E-02
 0.25985E-02 0.29562E-02 0.41192E-02 0.62550E-02 0.93301E-02 0.12925E-01 0.16491E-01 0.19643E-01 0.22066E-01 0.23480E-01
 0.23574E-01 0.21833E-01 0.18019E-01 0.13486E-01 0.10620E-01 0.10864E-01 0.15692E-01 0.28392E-01 0.51629E-01 0.78525E-01
 0.91022E-01 0.78525E-01 0.51629E-01 0.28392E-01 0.15692E-01 0.10864E-01 0.10620E-01 0.13486E-01 0.18019E-01 0.21833E-01
 0.23574E-01 0.23480E-01 0.22066E-01 0.19643E-01 0.16491E-01 0.12925E-01 0.93301E-02 0.62550E-02 0.41192E-02 0.29562E-02
 0.24192E-02 0.28045E-02 0.40338E-02 0.61631E-02 0.90101E-02 0.12161E-01 0.15187E-01 0.17761E-01 0.19643E-01 0.20577E-01
 0.19990E-01 0.17298E-01 0.13486E-01 0.11161E-01 0.12537E-01 0.21311E-01 0.48024E-01 0.10897     0.19917     0.27716    
 0.30660     0.27716     0.19917     0.10897     0.48024E-01 0.21311E-01 0.12537E-01 0.11161E-01 0.13486E-01 0.17298E-01
 0.19990E-01 0.20577E-01 0.19643E-01 0.17761E-01 0.15187E-01 0.12161E-01 0.90101E-02 0.61631E-02 0.40338E-02 0.28045E-02
 0.22277E-02 0.25806E-02 0.37133E-02 0.56562E-02 0.81744E-02 0.10844E-01 0.13266E-01 0.15187E-01 0.16491E-01 0.16797E-01
 0.15342E-01 0.12468E-01 0.10620E-01 0.12537E-01 0.23663E-01 0.62932E-01 0.16809     0.33188     0.47090     0.54659    
 0.56922     0.54659     0.47090     0.33188     0.16809     0.62932E-01 0.23663E-01 0.12537E-01 0.10620E-01 0.12468E-01
 0.15342E-01 0.16797E-01 0.16491E-01 0.15187E-01 0.13266E-01 0.10844E-01 0.81744E-02 0.56562E-02 0.37133E-02 0.25806E-02
 0.20405E-02 0.23322E-02 0.32748E-02 0.49006E-02 0.69722E-02 0.90689E-02 0.10844E-01 0.12161E-01 0.12925E-01 0.12561E-01
 0.10744E-01 0.92201E-02 0.10864E-01 0.21311E-01 0.62932E-01 0.19310     0.40790     0.57476     0.65736     0.69059    
 0.69916     0.69059     0.65736     0.57476     0.40790     0.19310     0.62932E-01 0.21311E-01 0.10864E-01 0.92201E-02
 0.10744E-01 0.12561E-01 0.12925E-01 0.12161E-01 0.10844E-01 0.90689E-02 0.69722E-02 0.49006E-02 0.32748E-02 0.23322E-02
 0.17676E-02 0.19853E-02 0.26810E-02 0.38905E-02 0.54442E-02 0.69722E-02 0.81744E-02 0.90101E-02 0.93301E-02 0.86179E-02
 0.74620E-02 0.82941E-02 0.15692E-01 0.48024E-01 0.16809     0.40790     0.60377     0.69153     0.71900     0.72228    
 0.72106     0.72228     0.71900     0.69153     0.60377     0.40790     0.16809     0.48024E-01 0.15692E-01 0.82941E-02
 0.74620E-02 0.86179E-02 0.93301E-02 0.90101E-02 0.81744E-02 0.69722E-02 0.54442E-02 0.38905E-02 0.26810E-02 0.19853E-02
 0.14205E-02 0.15739E-02 0.20467E-02 0.28524E-02 0.38905E-02 0.49006E-02 0.56562E-02 0.61631E-02 0.62550E-02 0.57378E-02
 0.58397E-02 0.97216E-02 0.28392E-01 0.10897     0.33188     0.57476     0.69153     0.72103     0.70813     0.68210    
 0.66931     0.68210     0.70813     0.72103     0.69153     0.57476     0.33188     0.10897     0.28392E-01 0.97216E-02
 0.58397E-02 0.57378E-02 0.62550E-02 0.61631E-02 0.56562E-02 0.49006E-02 0.38905E-02 0.28524E-02 0.20467E-02 0.15739E-02
 0.10919E-02 0.12017E-02 0.15263E-02 0.20467E-02 0.26810E-02 0.32748E-02 0.37133E-02 0.40338E-02 0.41192E-02 0.40774E-02
 0.54687E-02 0.13484E-01 0.51629E-01 0.19917     0.47090     0.65736     0.71900     0.70813     0.65364     0.58854    
 0.55901     0.58854     0.65364     0.70813     0.71900     0.65736     0.47090     0.19917     0.51629E-01 0.13484E-01
 0.54687E-02 0.40774E-02 0.41192E-02 0.40338E-02 0.37133E-02 0.32748E-02 0.26810E-02 0.20467E-02 0.15263E-02 0.12017E-02
 0.86095E-03 0.95000E-03 0.12017E-02 0.15739E-02 0.19853E-02 0.23322E-02 0.25806E-02 0.28045E-02 0.29562E-02 0.33051E-02
 0.57449E-02 0.18375E-01 0.78525E-01 0.27716     0.54659     0.69059     0.72228     0.68210     0.58854     0.48509    
 0.44010     0.48509     0.58854     0.68210     0.72228     0.69059     0.54659     0.27716     0.78525E-01 0.18375E-01
 0.57449E-02 0.33051E-02 0.29562E-02 0.28045E-02 0.25806E-02 0.23322E-02 0.19853E-02 0.15739E-02 0.12017E-02 0.95000E-03
 0.77719E-03 0.86095E-03 0.10919E-02 0.14205E-02 0.17676E-02 0.20405E-02 0.22277E-02 0.24192E-02 0.25985E-02 0.30881E-02
 0.59661E-02 0.20828E-01 0.91022E-01 0.30660     0.56922     0.69916     0.72106     0.66931     0.55901     0.44010    