 vasp.5.3.3 18Dez12 (build Jun 24 2015 15:58:02) complex                        
  
 executed on             LinuxIFC date 2023.04.24  08:41:39
 running on   32 total cores
 distrk:  each k-point on   32 cores,    1 groups
 distr:  one band on NCORES_PER_BAND=   1 cores,   32 groups


--------------------------------------------------------------------------------------------------------


 INCAR:
 POTCAR:    PAW Ca_sv_GW 31Mar2010                
 POTCAR:    PAW_PBE F 08Apr2002                   

 ----------------------------------------------------------------------------- 
|                                                                             |
|           W    W    AA    RRRRR   N    N  II  N    N   GGGG   !!!           |
|           W    W   A  A   R    R  NN   N  II  NN   N  G    G  !!!           |
|           W    W  A    A  R    R  N N  N  II  N N  N  G       !!!           |
|           W WW W  AAAAAA  RRRRR   N  N N  II  N  N N  G  GGG   !            |
|           WW  WW  A    A  R   R   N   NN  II  N   NN  G    G                |
|           W    W  A    A  R    R  N    N  II  N    N   GGGG   !!!           |
|                                                                             |
|      For optimal performance we recommend that you set                      |
|        NPAR = 4 - approx SQRT( number of cores)                             |
|      (number of cores/NPAR must be integer)                                 |
|      This setting will greatly improve the performance of VASP for DFT.     |
|      The default NPAR=number of cores might be grossly inefficient          |
|      on modern multi-core architectures or massively parallel machines.     |
|      Do your own testing.                                                   |
|      Unfortunately you need to use the default for hybrid, GW and RPA       |
|      calculations.                                                          |
|                                                                             |
 ----------------------------------------------------------------------------- 

 POTCAR:    PAW Ca_sv_GW 31Mar2010                
   VRHFIN =Ca: 2sp6s2d0.01                                                      
   LEXCH  = PE                                                                  
   EATOM  =  1001.1066 eV,   73.5793 Ry                                         
                                                                                
   TITEL  = PAW Ca_sv_GW 31Mar2010                                              
   LULTRA =        F    use ultrasoft PP ?                                      
   IUNSCR =        1    unscreen: 0-lin 1-nonlin 2-no                           
   RPACOR =    2.000    partial core radius                                     
   POMASS =   40.078; ZVAL   =   10.000    mass and valenz                      
   RCORE  =    2.500    outmost cutoff radius                                   
   RWIGS  =    2.800; RWIGS  =    1.482    wigner-seitz radius (au A)           
   ENMAX  =  281.430; ENMIN  =  211.072 eV                                      
   RCLOC  =    1.202    cutoff for local pot                                    
   LCOR   =        T    correct aug charges                                     
   LPAW   =        T    paw PP                                                  
   EAUG   =  478.321                                                            
   RMAX   =    2.555    core radius for proj-oper                               
   RAUG   =    1.300    factor for augmentation sphere                          
   RDEP   =    2.550    radius for radial grids                                 
   RDEPT  =    1.962    core radius for aug-charge                              
                                                                                
   Atomic configuration                                                         
    6 entries                                                                   
     n  l   j            E        occ.                                          
     1  0  0.50     -3946.8064   2.0000                                         
     2  0  0.50      -411.1755   2.0000                                         
     2  1  1.50      -331.6120   6.0000                                         
     3  0  0.50       -44.2885   2.0000                                         
     3  1  1.50       -25.4299   6.0000                                         
     3  2  1.50        -0.7535   2.0000                                         
   Description                                                                  
     l       E           TYP  RCUT    TYP  RCUT                                 
     0    -44.2884626     23  1.600                                             
     0    -45.6490452     23  1.600                                             
     0     81.6349560     23  1.600                                             
     1    -25.4298997     23  1.900                                             
     1     34.0145650     23  1.900                                             
     2     -0.7534580     23  2.200                                             
     2      1.9889663     23  2.200                                             
  local pseudopotential read in
  partial core-charges read in
  partial kinetic energy density read in
  kinetic energy density of atom read in
  atomic valenz-charges read in
  non local Contribution for L=           0  read in
    real space projection operators read in
  non local Contribution for L=           0  read in
    real space projection operators read in
  non local Contribution for L=           0  read in
    real space projection operators read in
  non local Contribution for L=           1  read in
    real space projection operators read in
  non local Contribution for L=           1  read in
    real space projection operators read in
  non local Contribution for L=           2  read in
    real space projection operators read in
  non local Contribution for L=           2  read in
    real space projection operators read in
    PAW grid and wavefunctions read in
 
   number of l-projection  operators is LMAX  =           7
   number of lm-projection operators is LMMAX =          19
 
 POTCAR:    PAW_PBE F 08Apr2002                   
   VRHFIN =F: s2p5                                                              
   LEXCH  = PE                                                                  
   EATOM  =   659.6475 eV,   48.4827 Ry                                         
                                                                                
   TITEL  = PAW_PBE F 08Apr2002                                                 
   LULTRA =        F    use ultrasoft PP ?                                      
   IUNSCR =        1    unscreen: 0-lin 1-nonlin 2-no                           
   RPACOR =    1.200    partial core radius                                     
   POMASS =   18.998; ZVAL   =    7.000    mass and valenz                      
   RCORE  =    1.520    outmost cutoff radius                                   
   RWIGS  =    1.500; RWIGS  =    0.794    wigner-seitz radius (au A)           
   ENMAX  =  400.000; ENMIN  =  300.000 eV                                      
   ICORE  =        2    local potential                                         
   LCOR   =        T    correct aug charges                                     
   LPAW   =        T    paw PP                                                  
   EAUG   =  613.614                                                            
   RMAX   =    1.555    core radius for proj-oper                               
   RAUG   =    1.300    factor for augmentation sphere                          
   RDEP   =    1.539    radius for radial grids                                 
   RDEPT  =    1.299    core radius for aug-charge                              
                                                                                
   Atomic configuration                                                         
    4 entries                                                                   
     n  l   j            E        occ.                                          
     1  0  0.50      -663.3661   2.0000                                         
     2  0  0.50       -29.8995   2.0000                                         
     2  1  0.50       -11.1114   5.0000                                         
     3  2  1.50       -10.8847   0.0000                                         
   Description                                                                  
     l       E           TYP  RCUT    TYP  RCUT                                 
     0    -29.8995018     23  1.200                                             
     0     -9.5240782     23  1.200                                             
     1    -11.1113914     23  1.520                                             
     1      1.3605826     23  1.520                                             
     2    -10.8846608      7  1.500                                             
  local pseudopotential read in
  partial core-charges read in
  partial kinetic energy density read in
  atomic valenz-charges read in
  non local Contribution for L=           0  read in
    real space projection operators read in
  non local Contribution for L=           0  read in
    real space projection operators read in
  non local Contribution for L=           1  read in
    real space projection operators read in
  non local Contribution for L=           1  read in
    real space projection operators read in
    PAW grid and wavefunctions read in
 
   number of l-projection  operators is LMAX  =           4
   number of lm-projection operators is LMMAX =           8
 
  PAW Ca_sv_GW 31Mar2010                :
 energy of atom  1       EATOM=-1001.1066
 kinetic energy error for atom=    0.0105 (will be added to EATOM!!)
  PAW_PBE F 08Apr2002                   :
 energy of atom  2       EATOM= -659.6475
 kinetic energy error for atom=    0.0354 (will be added to EATOM!!)
 
 
 POSCAR: Ca4 F8                                  
  positions in direct lattice
  No initial velocities read in
 exchange correlation table for  LEXCH =        8
   RHO(1)=    0.500       N(1)  =     2000
   RHO(2)=  100.500       N(2)  =     4000
 


--------------------------------------------------------------------------------------------------------


 ion  position               nearest neighbor table
   1  0.000  0.000  0.000-   5 2.39   6 2.39  11 2.39  12 2.39   9 2.39  10 2.39   7 2.39   8 2.39

   2  0.000  0.500  0.500-   7 2.39   8 2.39   9 2.39  10 2.39   5 2.39   6 2.39  11 2.39  12 2.39

   3  0.500  0.000  0.500-   7 2.39   8 2.39   9 2.39  10 2.39   5 2.39   6 2.39  11 2.39  12 2.39

   4  0.500  0.500  0.000-   5 2.39   6 2.39  11 2.39  12 2.39   9 2.39  10 2.39   7 2.39   8 2.39

   5  0.250  0.750  0.250-   1 2.39   4 2.39   3 2.39   2 2.39
   6  0.250  0.750  0.750-   1 2.39   4 2.39   3 2.39   2 2.39
   7  0.250  0.250  0.750-   2 2.39   3 2.39   1 2.39   4 2.39
   8  0.250  0.250  0.250-   2 2.39   3 2.39   1 2.39   4 2.39
   9  0.750  0.750  0.750-   2 2.39   3 2.39   1 2.39   4 2.39
  10  0.750  0.750  0.250-   2 2.39   3 2.39   1 2.39   4 2.39
  11  0.750  0.250  0.250-   1 2.39   4 2.39   3 2.39   2 2.39
  12  0.750  0.250  0.750-   1 2.39   4 2.39   3 2.39   2 2.39
 
  LATTYP: Found a simple cubic cell.
 ALAT       =     5.5160519363
  
  Lattice vectors:
  
 A1 = (   5.5160519363,   0.0000000000,   0.0000000000)
 A2 = (   0.0000000000,   5.5160519363,   0.0000000000)
 A3 = (   0.0000000000,   0.0000000000,   5.5160519363)


Analysis of symmetry for initial positions (statically):
=====================================================================
 Subroutine PRICEL returns following result:
 
  LATTYP: Found a face centered cubic cell.
 ALAT       =     5.5160519363
  
  Lattice vectors:
  
 A1 = (   2.7580259682,   2.7580259682,   0.0000000000)
 A2 = (   2.7580259682,   0.0000000000,  -2.7580259682)
 A3 = (   0.0000000000,   2.7580259682,  -2.7580259682)
 
   4 primitive cells build up your supercell.
 

 Routine SETGRP: Setting up the symmetry group for a 
 simple cubic supercell.


 Subroutine GETGRP returns: Found 48 space group operations
 (whereof 48 operations were pure point group operations)
 out of a pool of 48 trial point group operations.


The static configuration has the point symmetry O_h .


Analysis of symmetry for dynamics (positions and initial velocities):
=====================================================================
 Subroutine PRICEL returns following result:
 
  LATTYP: Found a face centered cubic cell.
 ALAT       =     5.5160519363
  
  Lattice vectors:
  
 A1 = (   2.7580259682,   2.7580259682,   0.0000000000)
 A2 = (   2.7580259682,   0.0000000000,  -2.7580259682)
 A3 = (   0.0000000000,   2.7580259682,  -2.7580259682)
 
   4 primitive cells build up your supercell.
 

 Routine SETGRP: Setting up the symmetry group for a 
 simple cubic supercell.


 Subroutine GETGRP returns: Found 48 space group operations
 (whereof 48 operations were pure point group operations)
 out of a pool of 48 trial point group operations.


The dynamic configuration has the point symmetry O_h .


Analysis of magnetic symmetry:
=====================================================================

 Subroutine MAGSYM returns: Found 48 space group operations
 (whereof 48 operations were pure point group operations)
 out of a pool of 48 trial space group operations
 (whereof 48 operations were pure point group operations)
 and found also     4 'primitive' translations


The magnetic configuration has the point symmetry O_h .


 irot  :   1
 --------------------------------------------------------------------
 isymop:   1   0   0
           0   1   0
           0   0   1

 gtrans:     0.0000000     0.0000000     0.0000000

 ptrans:     0.0000000     0.0000000     0.0000000
 rotmap:
 (   1->   1)  (   2->   2)  (   3->   3)  (   4->   4)  (   5->   5) 
 (   6->   6)  (   7->   7)  (   8->   8)  (   9->   9)  (  10->  10) 
 (  11->  11)  (  12->  12) 

 ptrans:     0.5000000     0.5000000     0.0000000
 rotmap:
 (   1->   4)  (   2->   3)  (   3->   2)  (   4->   1)  (   5->  11) 
 (   6->  12)  (   7->   9)  (   8->  10)  (   9->   7)  (  10->   8) 
 (  11->   5)  (  12->   6) 

 ptrans:     0.5000000     0.0000000     0.5000000
 rotmap:
 (   1->   3)  (   2->   4)  (   3->   1)  (   4->   2)  (   5->   9) 
 (   6->  10)  (   7->  11)  (   8->  12)  (   9->   5)  (  10->   6) 
 (  11->   7)  (  12->   8) 

 ptrans:     0.0000000     0.5000000     0.5000000
 rotmap:
 (   1->   2)  (   2->   1)  (   3->   4)  (   4->   3)  (   5->   7) 
 (   6->   8)  (   7->   5)  (   8->   6)  (   9->  11)  (  10->  12) 
 (  11->   9)  (  12->  10) 


 irot  :   2
 --------------------------------------------------------------------
 isymop:  -1   0   0
           0  -1   0
           0   0  -1

 gtrans:     0.0000000     0.0000000     0.0000000

 ptrans:     0.0000000     0.0000000     0.0000000
 rotmap:
 (   1->   1)  (   2->   2)  (   3->   3)  (   4->   4)  (   5->  12) 
 (   6->  11)  (   7->  10)  (   8->   9)  (   9->   8)  (  10->   7) 
 (  11->   6)  (  12->   5) 

 ptrans:     0.5000000     0.5000000     0.0000000
 rotmap:
 (   1->   4)  (   2->   3)  (   3->   2)  (   4->   1)  (   5->   6) 
 (   6->   5)  (   7->   8)  (   8->   7)  (   9->  10)  (  10->   9) 
 (  11->  12)  (  12->  11) 

 ptrans:     0.5000000     0.0000000     0.5000000
 rotmap:
 (   1->   3)  (   2->   4)  (   3->   1)  (   4->   2)  (   5->   8) 
 (   6->   7)  (   7->   6)  (   8->   5)  (   9->  12)  (  10->  11) 
 (  11->  10)  (  12->   9) 

 ptrans:     0.0000000     0.5000000     0.5000000
 rotmap:
 (   1->   2)  (   2->   1)  (   3->   4)  (   4->   3)  (   5->  10) 
 (   6->   9)  (   7->  12)  (   8->  11)  (   9->   6)  (  10->   5) 
 (  11->   8)  (  12->   7) 


 irot  :   3
 --------------------------------------------------------------------
 isymop:   0   0   1
           1   0   0
           0   1   0

 gtrans:     0.0000000     0.0000000     0.0000000

 ptrans:     0.0000000     0.0000000     0.0000000
 rotmap:
 (   1->   1)  (   2->   3)  (   3->   4)  (   4->   2)  (   5->   7) 
 (   6->  12)  (   7->  11)  (   8->   8)  (   9->   9)  (  10->   6) 
 (  11->   5)  (  12->  10) 

 ptrans:     0.5000000     0.5000000     0.0000000
 rotmap:
 (   1->   4)  (   2->   2)  (   3->   1)  (   4->   3)  (   5->   9) 
 (   6->   6)  (   7->   5)  (   8->  10)  (   9->   7)  (  10->  12) 
 (  11->  11)  (  12->   8) 

 ptrans:     0.5000000     0.0000000     0.5000000
 rotmap:
 (   1->   3)  (   2->   1)  (   3->   2)  (   4->   4)  (   5->  11) 
 (   6->   8)  (   7->   7)  (   8->  12)  (   9->   5)  (  10->  10) 
 (  11->   9)  (  12->   6) 

 ptrans:     0.0000000     0.5000000     0.5000000
 rotmap:
 (   1->   2)  (   2->   4)  (   3->   3)  (   4->   1)  (   5->   5) 
 (   6->  10)  (   7->   9)  (   8->   6)  (   9->  11)  (  10->   8) 
 (  11->   7)  (  12->  12) 


 irot  :   4
 --------------------------------------------------------------------
 isymop:   0   0  -1
          -1   0   0
           0  -1   0

 gtrans:     0.0000000     0.0000000     0.0000000

 ptrans:     0.0000000     0.0000000     0.0000000
 rotmap:
 (   1->   1)  (   2->   3)  (   3->   4)  (   4->   2)  (   5->  10) 
 (   6->   5)  (   7->   6)  (   8->   9)  (   9->   8)  (  10->  11) 
 (  11->  12)  (  12->   7) 

 ptrans:     0.5000000     0.5000000     0.0000000
 rotmap:
 (   1->   4)  (   2->   2)  (   3->   1)  (   4->   3)  (   5->   8) 
 (   6->  11)  (   7->  12)  (   8->   7)  (   9->  10)  (  10->   5) 
 (  11->   6)  (  12->   9) 

 ptrans:     0.5000000     0.0000000     0.5000000
 rotmap:
 (   1->   3)  (   2->   1)  (   3->   2)  (   4->   4)  (   5->   6) 
 (   6->   9)  (   7->  10)  (   8->   5)  (   9->  12)  (  10->   7) 
 (  11->   8)  (  12->  11) 

 ptrans:     0.0000000     0.5000000     0.5000000
 rotmap:
 (   1->   2)  (   2->   4)  (   3->   3)  (   4->   1)  (   5->  12) 
 (   6->   7)  (   7->   8)  (   8->  11)  (   9->   6)  (  10->   9) 
 (  11->  10)  (  12->   5) 


 irot  :   5
 --------------------------------------------------------------------
 isymop:   0   1   0
           0   0   1
           1   0   0

 gtrans:     0.0000000     0.0000000     0.0000000

 ptrans:     0.0000000     0.0000000     0.0000000
 rotmap:
 (   1->   1)  (   2->   4)  (   3->   2)  (   4->   3)  (   5->  11) 
 (   6->  10)  (   7->   5)  (   8->   8)  (   9->   9)  (  10->  12) 
 (  11->   7)  (  12->   6) 

 ptrans:     0.5000000     0.5000000     0.0000000
 rotmap:
 (   1->   4)  (   2->   1)  (   3->   3)  (   4->   2)  (   5->   5) 
 (   6->   8)  (   7->  11)  (   8->  10)  (   9->   7)  (  10->   6) 
 (  11->   9)  (  12->  12) 

 ptrans:     0.5000000     0.0000000     0.5000000
 rotmap:
 (   1->   3)  (   2->   2)  (   3->   4)  (   4->   1)  (   5->   7) 
 (   6->   6)  (   7->   9)  (   8->  12)  (   9->   5)  (  10->   8) 
 (  11->  11)  (  12->  10) 

 ptrans:     0.0000000     0.5000000     0.5000000
 rotmap:
 (   1->   2)  (   2->   3)  (   3->   1)  (   4->   4)  (   5->   9) 
 (   6->  12)  (   7->   7)  (   8->   6)  (   9->  11)  (  10->  10) 
 (  11->   5)  (  12->   8) 


 irot  :   6
 --------------------------------------------------------------------
 isymop:   0  -1   0
           0   0  -1
          -1   0   0

 gtrans:     0.0000000     0.0000000     0.0000000

 ptrans:     0.0000000     0.0000000     0.0000000
 rotmap:
 (   1->   1)  (   2->   4)  (   3->   2)  (   4->   3)  (   5->   6) 
 (   6->   7)  (   7->  12)  (   8->   9)  (   9->   8)  (  10->   5) 
 (  11->  10)  (  12->  11) 

 ptrans:     0.5000000     0.5000000     0.0000000
 rotmap:
 (   1->   4)  (   2->   1)  (   3->   3)  (   4->   2)  (   5->  12) 
 (   6->   9)  (   7->   6)  (   8->   7)  (   9->  10)  (  10->  11) 
 (  11->   8)  (  12->   5) 

 ptrans:     0.5000000     0.0000000     0.5000000
 rotmap:
 (   1->   3)  (   2->   2)  (   3->   4)  (   4->   1)  (   5->  10) 
 (   6->  11)  (   7->   8)  (   8->   5)  (   9->  12)  (  10->   9) 
 (  11->   6)  (  12->   7) 

 ptrans:     0.0000000     0.5000000     0.5000000
 rotmap:
 (   1->   2)  (   2->   3)  (   3->   1)  (   4->   4)  (   5->   8) 
 (   6->   5)  (   7->  10)  (   8->  11)  (   9->   6)  (  10->   7) 
 (  11->  12)  (  12->   9) 


 irot  :   7
 --------------------------------------------------------------------
 isymop:   0  -1   0
           1   0   0
           0   0   1

 gtrans:     0.0000000     0.0000000     0.0000000

 ptrans:     0.0000000     0.0000000     0.0000000
 rotmap:
 (   1->   1)  (   2->   3)  (   3->   2)  (   4->   4)  (   5->   8) 
 (   6->   7)  (   7->  12)  (   8->  11)  (   9->   6)  (  10->   5) 
 (  11->  10)  (  12->   9) 

 ptrans:     0.5000000     0.5000000     0.0000000
 rotmap:
 (   1->   4)  (   2->   2)  (   3->   3)  (   4->   1)  (   5->  10) 
 (   6->   9)  (   7->   6)  (   8->   5)  (   9->  12)  (  10->  11) 
 (  11->   8)  (  12->   7) 

 ptrans:     0.5000000     0.0000000     0.5000000
 rotmap:
 (   1->   3)  (   2->   1)  (   3->   4)  (   4->   2)  (   5->  12) 
 (   6->  11)  (   7->   8)  (   8->   7)  (   9->  10)  (  10->   9) 
 (  11->   6)  (  12->   5) 

 ptrans:     0.0000000     0.5000000     0.5000000
 rotmap:
 (   1->   2)  (   2->   4)  (   3->   1)  (   4->   3)  (   5->   6) 
 (   6->   5)  (   7->  10)  (   8->   9)  (   9->   8)  (  10->   7) 
 (  11->  12)  (  12->  11) 


 irot  :   8
 --------------------------------------------------------------------
 isymop:   0   1   0
          -1   0   0
           0   0  -1

 gtrans:     0.0000000     0.0000000     0.0000000

 ptrans:     0.0000000     0.0000000     0.0000000
 rotmap:
 (   1->   1)  (   2->   3)  (   3->   2)  (   4->   4)  (   5->   9) 
 (   6->  10)  (   7->   5)  (   8->   6)  (   9->  11)  (  10->  12) 
 (  11->   7)  (  12->   8) 

 ptrans:     0.5000000     0.5000000     0.0000000
 rotmap:
 (   1->   4)  (   2->   2)  (   3->   3)  (   4->   1)  (   5->   7) 
 (   6->   8)  (   7->  11)  (   8->  12)  (   9->   5)  (  10->   6) 
 (  11->   9)  (  12->  10) 

 ptrans:     0.5000000     0.0000000     0.5000000
 rotmap:
 (   1->   3)  (   2->   1)  (   3->   4)  (   4->   2)  (   5->   5) 
 (   6->   6)  (   7->   9)  (   8->  10)  (   9->   7)  (  10->   8) 
 (  11->  11)  (  12->  12) 

 ptrans:     0.0000000     0.5000000     0.5000000
 rotmap:
 (   1->   2)  (   2->   4)  (   3->   1)  (   4->   3)  (   5->  11) 
 (   6->  12)  (   7->   7)  (   8->   8)  (   9->   9)  (  10->  10) 
 (  11->   5)  (  12->   6) 


 irot  :   9
 --------------------------------------------------------------------
 isymop:  -1   0   0
           0   0   1
           0   1   0

 gtrans:     0.0000000     0.0000000     0.0000000

 ptrans:     0.0000000     0.0000000     0.0000000
 rotmap:
 (   1->   1)  (   2->   2)  (   3->   4)  (   4->   3)  (   5->  12) 
 (   6->   9)  (   7->  10)  (   8->  11)  (   9->   6)  (  10->   7) 
 (  11->   8)  (  12->   5) 

 ptrans:     0.5000000     0.5000000     0.0000000
 rotmap:
 (   1->   4)  (   2->   3)  (   3->   1)  (   4->   2)  (   5->   6) 
 (   6->   7)  (   7->   8)  (   8->   5)  (   9->  12)  (  10->   9) 
 (  11->  10)  (  12->  11) 

 ptrans:     0.5000000     0.0000000     0.5000000
 rotmap:
 (   1->   3)  (   2->   4)  (   3->   2)  (   4->   1)  (   5->   8) 
 (   6->   5)  (   7->   6)  (   8->   7)  (   9->  10)  (  10->  11) 
 (  11->  12)  (  12->   9) 

 ptrans:     0.0000000     0.5000000     0.5000000
 rotmap:
 (   1->   2)  (   2->   1)  (   3->   3)  (   4->   4)  (   5->  10) 
 (   6->  11)  (   7->  12)  (   8->   9)  (   9->   8)  (  10->   5) 
 (  11->   6)  (  12->   7) 


 irot  :  10
 --------------------------------------------------------------------
 isymop:   1   0   0
           0   0  -1
           0  -1   0

 gtrans:     0.0000000     0.0000000     0.0000000

 ptrans:     0.0000000     0.0000000     0.0000000
 rotmap:
 (   1->   1)  (   2->   2)  (   3->   4)  (   4->   3)  (   5->   5) 
 (   6->   8)  (   7->   7)  (   8->   6)  (   9->  11)  (  10->  10) 
 (  11->   9)  (  12->  12) 

 ptrans:     0.5000000     0.5000000     0.0000000
 rotmap:
 (   1->   4)  (   2->   3)  (   3->   1)  (   4->   2)  (   5->  11) 
 (   6->  10)  (   7->   9)  (   8->  12)  (   9->   5)  (  10->   8) 
 (  11->   7)  (  12->   6) 

 ptrans:     0.5000000     0.0000000     0.5000000
 rotmap:
 (   1->   3)  (   2->   4)  (   3->   2)  (   4->   1)  (   5->   9) 
 (   6->  12)  (   7->  11)  (   8->  10)  (   9->   7)  (  10->   6) 
 (  11->   5)  (  12->   8) 

 ptrans:     0.0000000     0.5000000     0.5000000
 rotmap:
 (   1->   2)  (   2->   1)  (   3->   3)  (   4->   4)  (   5->   7) 
 (   6->   6)  (   7->   5)  (   8->   8)  (   9->   9)  (  10->  12) 
 (  11->  11)  (  12->  10) 


 irot  :  11
 --------------------------------------------------------------------
 isymop:   0   0  -1
           0   1   0
           1   0   0

 gtrans:     0.0000000     0.0000000     0.0000000

 ptrans:     0.0000000     0.0000000     0.0000000
 rotmap:
 (   1->   1)  (   2->   4)  (   3->   3)  (   4->   2)  (   5->  10) 
 (   6->   5)  (   7->   8)  (   8->  11)  (   9->   6)  (  10->   9) 
 (  11->  12)  (  12->   7) 

 ptrans:     0.5000000     0.5000000     0.0000000
 rotmap:
 (   1->   4)  (   2->   1)  (   3->   2)  (   4->   3)  (   5->   8) 
 (   6->  11)  (   7->  10)  (   8->   5)  (   9->  12)  (  10->   7) 
 (  11->   6)  (  12->   9) 

 ptrans:     0.5000000     0.0000000     0.5000000
 rotmap:
 (   1->   3)  (   2->   2)  (   3->   1)  (   4->   4)  (   5->   6) 
 (   6->   9)  (   7->  12)  (   8->   7)  (   9->  10)  (  10->   5) 
 (  11->   8)  (  12->  11) 

 ptrans:     0.0000000     0.5000000     0.5000000
 rotmap:
 (   1->   2)  (   2->   3)  (   3->   4)  (   4->   1)  (   5->  12) 
 (   6->   7)  (   7->   6)  (   8->   9)  (   9->   8)  (  10->  11) 
 (  11->  10)  (  12->   5) 


 irot  :  12
 --------------------------------------------------------------------
 isymop:   0   0   1
           0  -1   0
          -1   0   0

 gtrans:     0.0000000     0.0000000     0.0000000

 ptrans:     0.0000000     0.0000000     0.0000000
 rotmap:
 (   1->   1)  (   2->   4)  (   3->   3)  (   4->   2)  (   5->   7) 
 (   6->  12)  (   7->   9)  (   8->   6)  (   9->  11)  (  10->   8) 
 (  11->   5)  (  12->  10) 

 ptrans:     0.5000000     0.5000000     0.0000000
 rotmap:
 (   1->   4)  (   2->   1)  (   3->   2)  (   4->   3)  (   5->   9) 
 (   6->   6)  (   7->   7)  (   8->  12)  (   9->   5)  (  10->  10) 
 (  11->  11)  (  12->   8) 

 ptrans:     0.5000000     0.0000000     0.5000000
 rotmap:
 (   1->   3)  (   2->   2)  (   3->   1)  (   4->   4)  (   5->  11) 
 (   6->   8)  (   7->   5)  (   8->  10)  (   9->   7)  (  10->  12) 
 (  11->   9)  (  12->   6) 

 ptrans:     0.0000000     0.5000000     0.5000000
 rotmap:
 (   1->   2)  (   2->   3)  (   3->   4)  (   4->   1)  (   5->   5) 
 (   6->  10)  (   7->  11)  (   8->   8)  (   9->   9)  (  10->   6) 
 (  11->   7)  (  12->  12) 


 irot  :  13
 --------------------------------------------------------------------
 isymop:  -1   0   0
           0  -1   0
           0   0   1

 gtrans:     0.0000000     0.0000000     0.0000000

 ptrans:     0.0000000     0.0000000     0.0000000
 rotmap:
 (   1->   1)  (   2->   2)  (   3->   3)  (   4->   4)  (   5->  11) 
 (   6->  12)  (   7->   9)  (   8->  10)  (   9->   7)  (  10->   8) 
 (  11->   5)  (  12->   6) 

 ptrans:     0.5000000     0.5000000     0.0000000
 rotmap:
 (   1->   4)  (   2->   3)  (   3->   2)  (   4->   1)  (   5->   5) 
 (   6->   6)  (   7->   7)  (   8->   8)  (   9->   9)  (  10->  10) 
 (  11->  11)  (  12->  12) 

 ptrans:     0.5000000     0.0000000     0.5000000
 rotmap:
 (   1->   3)  (   2->   4)  (   3->   1)  (   4->   2)  (   5->   7) 
 (   6->   8)  (   7->   5)  (   8->   6)  (   9->  11)  (  10->  12) 
 (  11->   9)  (  12->  10) 

 ptrans:     0.0000000     0.5000000     0.5000000
 rotmap:
 (   1->   2)  (   2->   1)  (   3->   4)  (   4->   3)  (   5->   9) 
 (   6->  10)  (   7->  11)  (   8->  12)  (   9->   5)  (  10->   6) 
 (  11->   7)  (  12->   8) 


 irot  :  14
 --------------------------------------------------------------------
 isymop:   1   0   0
           0   1   0
           0   0  -1

 gtrans:     0.0000000     0.0000000     0.0000000

 ptrans:     0.0000000     0.0000000     0.0000000
 rotmap:
 (   1->   1)  (   2->   2)  (   3->   3)  (   4->   4)  (   5->   6) 
 (   6->   5)  (   7->   8)  (   8->   7)  (   9->  10)  (  10->   9) 
 (  11->  12)  (  12->  11) 

 ptrans:     0.5000000     0.5000000     0.0000000
 rotmap:
 (   1->   4)  (   2->   3)  (   3->   2)  (   4->   1)  (   5->  12) 
 (   6->  11)  (   7->  10)  (   8->   9)  (   9->   8)  (  10->   7) 
 (  11->   6)  (  12->   5) 

 ptrans:     0.5000000     0.0000000     0.5000000
 rotmap:
 (   1->   3)  (   2->   4)  (   3->   1)  (   4->   2)  (   5->  10) 
 (   6->   9)  (   7->  12)  (   8->  11)  (   9->   6)  (  10->   5) 
 (  11->   8)  (  12->   7) 

 ptrans:     0.0000000     0.5000000     0.5000000
 rotmap:
 (   1->   2)  (   2->   1)  (   3->   4)  (   4->   3)  (   5->   8) 
 (   6->   7)  (   7->   6)  (   8->   5)  (   9->  12)  (  10->  11) 
 (  11->  10)  (  12->   9) 


 irot  :  15
 --------------------------------------------------------------------
 isymop:   0   0  -1
          -1   0   0
           0   1   0

 gtrans:     0.0000000     0.0000000     0.0000000

 ptrans:     0.0000000     0.0000000     0.0000000
 rotmap:
 (   1->   1)  (   2->   3)  (   3->   4)  (   4->   2)  (   5->   9) 
 (   6->   6)  (   7->   5)  (   8->  10)  (   9->   7)  (  10->  12) 
 (  11->  11)  (  12->   8) 

 ptrans:     0.5000000     0.5000000     0.0000000
 rotmap:
 (   1->   4)  (   2->   2)  (   3->   1)  (   4->   3)  (   5->   7) 
 (   6->  12)  (   7->  11)  (   8->   8)  (   9->   9)  (  10->   6) 
 (  11->   5)  (  12->  10) 

 ptrans:     0.5000000     0.0000000     0.5000000
 rotmap:
 (   1->   3)  (   2->   1)  (   3->   2)  (   4->   4)  (   5->   5) 
 (   6->  10)  (   7->   9)  (   8->   6)  (   9->  11)  (  10->   8) 
 (  11->   7)  (  12->  12) 

 ptrans:     0.0000000     0.5000000     0.5000000
 rotmap:
 (   1->   2)  (   2->   4)  (   3->   3)  (   4->   1)  (   5->  11) 
 (   6->   8)  (   7->   7)  (   8->  12)  (   9->   5)  (  10->  10) 
 (  11->   9)  (  12->   6) 


 irot  :  16
 --------------------------------------------------------------------
 isymop:   0   0   1
           1   0   0
           0  -1   0

 gtrans:     0.0000000     0.0000000     0.0000000

 ptrans:     0.0000000     0.0000000     0.0000000
 rotmap:
 (   1->   1)  (   2->   3)  (   3->   4)  (   4->   2)  (   5->   8) 
 (   6->  11)  (   7->  12)  (   8->   7)  (   9->  10)  (  10->   5) 
 (  11->   6)  (  12->   9) 

 ptrans:     0.5000000     0.5000000     0.0000000
 rotmap:
 (   1->   4)  (   2->   2)  (   3->   1)  (   4->   3)  (   5->  10) 
 (   6->   5)  (   7->   6)  (   8->   9)  (   9->   8)  (  10->  11) 
 (  11->  12)  (  12->   7) 

 ptrans:     0.5000000     0.0000000     0.5000000
 rotmap:
 (   1->   3)  (   2->   1)  (   3->   2)  (   4->   4)  (   5->  12) 
 (   6->   7)  (   7->   8)  (   8->  11)  (   9->   6)  (  10->   9) 
 (  11->  10)  (  12->   5) 

 ptrans:     0.0000000     0.5000000     0.5000000
 rotmap:
 (   1->   2)  (   2->   4)  (   3->   3)  (   4->   1)  (   5->   6) 
 (   6->   9)  (   7->  10)  (   8->   5)  (   9->  12)  (  10->   7) 
 (  11->   8)  (  12->  11) 


 irot  :  17
 --------------------------------------------------------------------
 isymop:   0  -1   0
           0   0  -1
           1   0   0

 gtrans:     0.0000000     0.0000000     0.0000000

 ptrans:     0.0000000     0.0000000     0.0000000
 rotmap:
 (   1->   1)  (   2->   4)  (   3->   2)  (   4->   3)  (   5->   5) 
 (   6->   8)  (   7->  11)  (   8->  10)  (   9->   7)  (  10->   6) 
 (  11->   9)  (  12->  12) 

 ptrans:     0.5000000     0.5000000     0.0000000
 rotmap:
 (   1->   4)  (   2->   1)  (   3->   3)  (   4->   2)  (   5->  11) 
 (   6->  10)  (   7->   5)  (   8->   8)  (   9->   9)  (  10->  12) 
 (  11->   7)  (  12->   6) 

 ptrans:     0.5000000     0.0000000     0.5000000
 rotmap:
 (   1->   3)  (   2->   2)  (   3->   4)  (   4->   1)  (   5->   9) 
 (   6->  12)  (   7->   7)  (   8->   6)  (   9->  11)  (  10->  10) 
 (  11->   5)  (  12->   8) 

 ptrans:     0.0000000     0.5000000     0.5000000
 rotmap:
 (   1->   2)  (   2->   3)  (   3->   1)  (   4->   4)  (   5->   7) 
 (   6->   6)  (   7->   9)  (   8->  12)  (   9->   5)  (  10->   8) 
 (  11->  11)  (  12->  10) 


 irot  :  18
 --------------------------------------------------------------------
 isymop:   0   1   0
           0   0   1
          -1   0   0

 gtrans:     0.0000000     0.0000000     0.0000000

 ptrans:     0.0000000     0.0000000     0.0000000
 rotmap:
 (   1->   1)  (   2->   4)  (   3->   2)  (   4->   3)  (   5->  12) 
 (   6->   9)  (   7->   6)  (   8->   7)  (   9->  10)  (  10->  11) 
 (  11->   8)  (  12->   5) 

 ptrans:     0.5000000     0.5000000     0.0000000
 rotmap:
 (   1->   4)  (   2->   1)  (   3->   3)  (   4->   2)  (   5->   6) 
 (   6->   7)  (   7->  12)  (   8->   9)  (   9->   8)  (  10->   5) 
 (  11->  10)  (  12->  11) 

 ptrans:     0.5000000     0.0000000     0.5000000
 rotmap:
 (   1->   3)  (   2->   2)  (   3->   4)  (   4->   1)  (   5->   8) 
 (   6->   5)  (   7->  10)  (   8->  11)  (   9->   6)  (  10->   7) 
 (  11->  12)  (  12->   9) 

 ptrans:     0.0000000     0.5000000     0.5000000
 rotmap:
 (   1->   2)  (   2->   3)  (   3->   1)  (   4->   4)  (   5->  10) 
 (   6->  11)  (   7->   8)  (   8->   5)  (   9->  12)  (  10->   9) 
 (  11->   6)  (  12->   7) 


 irot  :  19
 --------------------------------------------------------------------
 isymop:   0   1   0
          -1   0   0
           0   0   1

 gtrans:     0.0000000     0.0000000     0.0000000

 ptrans:     0.0000000     0.0000000     0.0000000
 rotmap:
 (   1->   1)  (   2->   3)  (   3->   2)  (   4->   4)  (   5->  10) 
 (   6->   9)  (   7->   6)  (   8->   5)  (   9->  12)  (  10->  11) 
 (  11->   8)  (  12->   7) 

 ptrans:     0.5000000     0.5000000     0.0000000
 rotmap:
 (   1->   4)  (   2->   2)  (   3->   3)  (   4->   1)  (   5->   8) 
 (   6->   7)  (   7->  12)  (   8->  11)  (   9->   6)  (  10->   5) 
 (  11->  10)  (  12->   9) 

 ptrans:     0.5000000     0.0000000     0.5000000
 rotmap:
 (   1->   3)  (   2->   1)  (   3->   4)  (   4->   2)  (   5->   6) 
 (   6->   5)  (   7->  10)  (   8->   9)  (   9->   8)  (  10->   7) 
 (  11->  12)  (  12->  11) 

 ptrans:     0.0000000     0.5000000     0.5000000
 rotmap:
 (   1->   2)  (   2->   4)  (   3->   1)  (   4->   3)  (   5->  12) 
 (   6->  11)  (   7->   8)  (   8->   7)  (   9->  10)  (  10->   9) 
 (  11->   6)  (  12->   5) 


 irot  :  20
 --------------------------------------------------------------------
 isymop:   0  -1   0
           1   0   0
           0   0  -1

 gtrans:     0.0000000     0.0000000     0.0000000

 ptrans:     0.0000000     0.0000000     0.0000000
 rotmap:
 (   1->   1)  (   2->   3)  (   3->   2)  (   4->   4)  (   5->   7) 
 (   6->   8)  (   7->  11)  (   8->  12)  (   9->   5)  (  10->   6) 
 (  11->   9)  (  12->  10) 

 ptrans:     0.5000000     0.5000000     0.0000000
 rotmap:
 (   1->   4)  (   2->   2)  (   3->   3)  (   4->   1)  (   5->   9) 
 (   6->  10)  (   7->   5)  (   8->   6)  (   9->  11)  (  10->  12) 
 (  11->   7)  (  12->   8) 

 ptrans:     0.5000000     0.0000000     0.5000000
 rotmap:
 (   1->   3)  (   2->   1)  (   3->   4)  (   4->   2)  (   5->  11) 
 (   6->  12)  (   7->   7)  (   8->   8)  (   9->   9)  (  10->  10) 
 (  11->   5)  (  12->   6) 

 ptrans:     0.0000000     0.5000000     0.5000000
 rotmap:
 (   1->   2)  (   2->   4)  (   3->   1)  (   4->   3)  (   5->   5) 
 (   6->   6)  (   7->   9)  (   8->  10)  (   9->   7)  (  10->   8) 
 (  11->  11)  (  12->  12) 


 irot  :  21
 --------------------------------------------------------------------
 isymop:   1   0   0
           0   0  -1
           0   1   0

 gtrans:     0.0000000     0.0000000     0.0000000

 ptrans:     0.0000000     0.0000000     0.0000000
 rotmap:
 (   1->   1)  (   2->   2)  (   3->   4)  (   4->   3)  (   5->   6) 
 (   6->   7)  (   7->   8)  (   8->   5)  (   9->  12)  (  10->   9) 
 (  11->  10)  (  12->  11) 

 ptrans:     0.5000000     0.5000000     0.0000000
 rotmap:
 (   1->   4)  (   2->   3)  (   3->   1)  (   4->   2)  (   5->  12) 
 (   6->   9)  (   7->  10)  (   8->  11)  (   9->   6)  (  10->   7) 
 (  11->   8)  (  12->   5) 

 ptrans:     0.5000000     0.0000000     0.5000000
 rotmap:
 (   1->   3)  (   2->   4)  (   3->   2)  (   4->   1)  (   5->  10) 
 (   6->  11)  (   7->  12)  (   8->   9)  (   9->   8)  (  10->   5) 
 (  11->   6)  (  12->   7) 

 ptrans:     0.0000000     0.5000000     0.5000000
 rotmap:
 (   1->   2)  (   2->   1)  (   3->   3)  (   4->   4)  (   5->   8) 
 (   6->   5)  (   7->   6)  (   8->   7)  (   9->  10)  (  10->  11) 
 (  11->  12)  (  12->   9) 


 irot  :  22
 --------------------------------------------------------------------
 isymop:  -1   0   0
           0   0   1
           0  -1   0

 gtrans:     0.0000000     0.0000000     0.0000000

 ptrans:     0.0000000     0.0000000     0.0000000
 rotmap:
 (   1->   1)  (   2->   2)  (   3->   4)  (   4->   3)  (   5->  11) 
 (   6->  10)  (   7->   9)  (   8->  12)  (   9->   5)  (  10->   8) 
 (  11->   7)  (  12->   6) 

 ptrans:     0.5000000     0.5000000     0.0000000
 rotmap:
 (   1->   4)  (   2->   3)  (   3->   1)  (   4->   2)  (   5->   5) 
 (   6->   8)  (   7->   7)  (   8->   6)  (   9->  11)  (  10->  10) 
 (  11->   9)  (  12->  12) 

 ptrans:     0.5000000     0.0000000     0.5000000
 rotmap:
 (   1->   3)  (   2->   4)  (   3->   2)  (   4->   1)  (   5->   7) 
 (   6->   6)  (   7->   5)  (   8->   8)  (   9->   9)  (  10->  12) 
 (  11->  11)  (  12->  10) 

 ptrans:     0.0000000     0.5000000     0.5000000
 rotmap:
 (   1->   2)  (   2->   1)  (   3->   3)  (   4->   4)  (   5->   9) 
 (   6->  12)  (   7->  11)  (   8->  10)  (   9->   7)  (  10->   6) 
 (  11->   5)  (  12->   8) 


 irot  :  23
 --------------------------------------------------------------------
 isymop:   0   0   1
           0  -1   0
           1   0   0

 gtrans:     0.0000000     0.0000000     0.0000000

 ptrans:     0.0000000     0.0000000     0.0000000
 rotmap:
 (   1->   1)  (   2->   4)  (   3->   3)  (   4->   2)  (   5->   8) 
 (   6->  11)  (   7->  10)  (   8->   5)  (   9->  12)  (  10->   7) 
 (  11->   6)  (  12->   9) 

 ptrans:     0.5000000     0.5000000     0.0000000
 rotmap:
 (   1->   4)  (   2->   1)  (   3->   2)  (   4->   3)  (   5->  10) 
 (   6->   5)  (   7->   8)  (   8->  11)  (   9->   6)  (  10->   9) 
 (  11->  12)  (  12->   7) 

 ptrans:     0.5000000     0.0000000     0.5000000
 rotmap:
 (   1->   3)  (   2->   2)  (   3->   1)  (   4->   4)  (   5->  12) 
 (   6->   7)  (   7->   6)  (   8->   9)  (   9->   8)  (  10->  11) 
 (  11->  10)  (  12->   5) 

 ptrans:     0.0000000     0.5000000     0.5000000
 rotmap:
 (   1->   2)  (   2->   3)  (   3->   4)  (   4->   1)  (   5->   6) 
 (   6->   9)  (   7->  12)  (   8->   7)  (   9->  10)  (  10->   5) 
 (  11->   8)  (  12->  11) 


 irot  :  24
 --------------------------------------------------------------------
 isymop:   0   0  -1
           0   1   0
          -1   0   0

 gtrans:     0.0000000     0.0000000     0.0000000

 ptrans:     0.0000000     0.0000000     0.0000000
 rotmap:
 (   1->   1)  (   2->   4)  (   3->   3)  (   4->   2)  (   5->   9) 
 (   6->   6)  (   7->   7)  (   8->  12)  (   9->   5)  (  10->  10) 
 (  11->  11)  (  12->   8) 

 ptrans:     0.5000000     0.5000000     0.0000000
 rotmap:
 (   1->   4)  (   2->   1)  (   3->   2)  (   4->   3)  (   5->   7) 
 (   6->  12)  (   7->   9)  (   8->   6)  (   9->  11)  (  10->   8) 
 (  11->   5)  (  12->  10) 

 ptrans:     0.5000000     0.0000000     0.5000000
 rotmap:
 (   1->   3)  (   2->   2)  (   3->   1)  (   4->   4)  (   5->   5) 
 (   6->  10)  (   7->  11)  (   8->   8)  (   9->   9)  (  10->   6) 
 (  11->   7)  (  12->  12) 

 ptrans:     0.0000000     0.5000000     0.5000000
 rotmap:
 (   1->   2)  (   2->   3)  (   3->   4)  (   4->   1)  (   5->  11) 
 (   6->   8)  (   7->   5)  (   8->  10)  (   9->   7)  (  10->  12) 
 (  11->   9)  (  12->   6) 


 irot  :  25
 --------------------------------------------------------------------
 isymop:   0   0   1
          -1   0   0
           0  -1   0

 gtrans:     0.0000000     0.0000000     0.0000000

 ptrans:     0.0000000     0.0000000     0.0000000
 rotmap:
 (   1->   1)  (   2->   3)  (   3->   4)  (   4->   2)  (   5->   5) 
 (   6->  10)  (   7->   9)  (   8->   6)  (   9->  11)  (  10->   8) 
 (  11->   7)  (  12->  12) 

 ptrans:     0.5000000     0.5000000     0.0000000
 rotmap:
 (   1->   4)  (   2->   2)  (   3->   1)  (   4->   3)  (   5->  11) 
 (   6->   8)  (   7->   7)  (   8->  12)  (   9->   5)  (  10->  10) 
 (  11->   9)  (  12->   6) 

 ptrans:     0.5000000     0.0000000     0.5000000
 rotmap:
 (   1->   3)  (   2->   1)  (   3->   2)  (   4->   4)  (   5->   9) 
 (   6->   6)  (   7->   5)  (   8->  10)  (   9->   7)  (  10->  12) 
 (  11->  11)  (  12->   8) 

 ptrans:     0.0000000     0.5000000     0.5000000
 rotmap:
 (   1->   2)  (   2->   4)  (   3->   3)  (   4->   1)  (   5->   7) 
 (   6->  12)  (   7->  11)  (   8->   8)  (   9->   9)  (  10->   6) 
 (  11->   5)  (  12->  10) 


 irot  :  26
 --------------------------------------------------------------------
 isymop:   0   0  -1
           1   0   0
           0   1   0

 gtrans:     0.0000000     0.0000000     0.0000000

 ptrans:     0.0000000     0.0000000     0.0000000
 rotmap:
 (   1->   1)  (   2->   3)  (   3->   4)  (   4->   2)  (   5->  12) 
 (   6->   7)  (   7->   8)  (   8->  11)  (   9->   6)  (  10->   9) 
 (  11->  10)  (  12->   5) 

 ptrans:     0.5000000     0.5000000     0.0000000
 rotmap:
 (   1->   4)  (   2->   2)  (   3->   1)  (   4->   3)  (   5->   6) 
 (   6->   9)  (   7->  10)  (   8->   5)  (   9->  12)  (  10->   7) 
 (  11->   8)  (  12->  11) 

 ptrans:     0.5000000     0.0000000     0.5000000
 rotmap:
 (   1->   3)  (   2->   1)  (   3->   2)  (   4->   4)  (   5->   8) 
 (   6->  11)  (   7->  12)  (   8->   7)  (   9->  10)  (  10->   5) 
 (  11->   6)  (  12->   9) 

 ptrans:     0.0000000     0.5000000     0.5000000
 rotmap:
 (   1->   2)  (   2->   4)  (   3->   3)  (   4->   1)  (   5->  10) 
 (   6->   5)  (   7->   6)  (   8->   9)  (   9->   8)  (  10->  11) 
 (  11->  12)  (  12->   7) 


 irot  :  27
 --------------------------------------------------------------------
 isymop:   0   1   0
           0   0  -1
          -1   0   0

 gtrans:     0.0000000     0.0000000     0.0000000

 ptrans:     0.0000000     0.0000000     0.0000000
 rotmap:
 (   1->   1)  (   2->   4)  (   3->   2)  (   4->   3)  (   5->   9) 
 (   6->  12)  (   7->   7)  (   8->   6)  (   9->  11)  (  10->  10) 
 (  11->   5)  (  12->   8) 

 ptrans:     0.5000000     0.5000000     0.0000000
 rotmap:
 (   1->   4)  (   2->   1)  (   3->   3)  (   4->   2)  (   5->   7) 
 (   6->   6)  (   7->   9)  (   8->  12)  (   9->   5)  (  10->   8) 
 (  11->  11)  (  12->  10) 

 ptrans:     0.5000000     0.0000000     0.5000000
 rotmap:
 (   1->   3)  (   2->   2)  (   3->   4)  (   4->   1)  (   5->   5) 
 (   6->   8)  (   7->  11)  (   8->  10)  (   9->   7)  (  10->   6) 
 (  11->   9)  (  12->  12) 

 ptrans:     0.0000000     0.5000000     0.5000000
 rotmap:
 (   1->   2)  (   2->   3)  (   3->   1)  (   4->   4)  (   5->  11) 
 (   6->  10)  (   7->   5)  (   8->   8)  (   9->   9)  (  10->  12) 
 (  11->   7)  (  12->   6) 


 irot  :  28
 --------------------------------------------------------------------
 isymop:   0  -1   0
           0   0   1
           1   0   0

 gtrans:     0.0000000     0.0000000     0.0000000

 ptrans:     0.0000000     0.0000000     0.0000000
 rotmap:
 (   1->   1)  (   2->   4)  (   3->   2)  (   4->   3)  (   5->   8) 
 (   6->   5)  (   7->  10)  (   8->  11)  (   9->   6)  (  10->   7) 
 (  11->  12)  (  12->   9) 

 ptrans:     0.5000000     0.5000000     0.0000000
 rotmap:
 (   1->   4)  (   2->   1)  (   3->   3)  (   4->   2)  (   5->  10) 
 (   6->  11)  (   7->   8)  (   8->   5)  (   9->  12)  (  10->   9) 
 (  11->   6)  (  12->   7) 

 ptrans:     0.5000000     0.0000000     0.5000000
 rotmap:
 (   1->   3)  (   2->   2)  (   3->   4)  (   4->   1)  (   5->  12) 
 (   6->   9)  (   7->   6)  (   8->   7)  (   9->  10)  (  10->  11) 
 (  11->   8)  (  12->   5) 

 ptrans:     0.0000000     0.5000000     0.5000000
 rotmap:
 (   1->   2)  (   2->   3)  (   3->   1)  (   4->   4)  (   5->   6) 
 (   6->   7)  (   7->  12)  (   8->   9)  (   9->   8)  (  10->   5) 
 (  11->  10)  (  12->  11) 


 irot  :  29
 --------------------------------------------------------------------
 isymop:   1   0   0
           0  -1   0
           0   0  -1

 gtrans:     0.0000000     0.0000000     0.0000000

 ptrans:     0.0000000     0.0000000     0.0000000
 rotmap:
 (   1->   1)  (   2->   2)  (   3->   3)  (   4->   4)  (   5->   7) 
 (   6->   8)  (   7->   5)  (   8->   6)  (   9->  11)  (  10->  12) 
 (  11->   9)  (  12->  10) 

 ptrans:     0.5000000     0.5000000     0.0000000
 rotmap:
 (   1->   4)  (   2->   3)  (   3->   2)  (   4->   1)  (   5->   9) 
 (   6->  10)  (   7->  11)  (   8->  12)  (   9->   5)  (  10->   6) 
 (  11->   7)  (  12->   8) 

 ptrans:     0.5000000     0.0000000     0.5000000
 rotmap:
 (   1->   3)  (   2->   4)  (   3->   1)  (   4->   2)  (   5->  11) 
 (   6->  12)  (   7->   9)  (   8->  10)  (   9->   7)  (  10->   8) 
 (  11->   5)  (  12->   6) 

 ptrans:     0.0000000     0.5000000     0.5000000
 rotmap:
 (   1->   2)  (   2->   1)  (   3->   4)  (   4->   3)  (   5->   5) 
 (   6->   6)  (   7->   7)  (   8->   8)  (   9->   9)  (  10->  10) 
 (  11->  11)  (  12->  12) 


 irot  :  30
 --------------------------------------------------------------------
 isymop:  -1   0   0
           0   1   0
           0   0   1

 gtrans:     0.0000000     0.0000000     0.0000000

 ptrans:     0.0000000     0.0000000     0.0000000
 rotmap:
 (   1->   1)  (   2->   2)  (   3->   3)  (   4->   4)  (   5->  10) 
 (   6->   9)  (   7->  12)  (   8->  11)  (   9->   6)  (  10->   5) 
 (  11->   8)  (  12->   7) 

 ptrans:     0.5000000     0.5000000     0.0000000
 rotmap:
 (   1->   4)  (   2->   3)  (   3->   2)  (   4->   1)  (   5->   8) 
 (   6->   7)  (   7->   6)  (   8->   5)  (   9->  12)  (  10->  11) 
 (  11->  10)  (  12->   9) 

 ptrans:     0.5000000     0.0000000     0.5000000
 rotmap:
 (   1->   3)  (   2->   4)  (   3->   1)  (   4->   2)  (   5->   6) 
 (   6->   5)  (   7->   8)  (   8->   7)  (   9->  10)  (  10->   9) 
 (  11->  12)  (  12->  11) 

 ptrans:     0.0000000     0.5000000     0.5000000
 rotmap:
 (   1->   2)  (   2->   1)  (   3->   4)  (   4->   3)  (   5->  12) 
 (   6->  11)  (   7->  10)  (   8->   9)  (   9->   8)  (  10->   7) 
 (  11->   6)  (  12->   5) 


 irot  :  31
 --------------------------------------------------------------------
 isymop:   0   0   1
           0   1   0
          -1   0   0

 gtrans:     0.0000000     0.0000000     0.0000000

 ptrans:     0.0000000     0.0000000     0.0000000
 rotmap:
 (   1->   1)  (   2->   4)  (   3->   3)  (   4->   2)  (   5->   6) 
 (   6->   9)  (   7->  12)  (   8->   7)  (   9->  10)  (  10->   5) 
 (  11->   8)  (  12->  11) 

 ptrans:     0.5000000     0.5000000     0.0000000
 rotmap:
 (   1->   4)  (   2->   1)  (   3->   2)  (   4->   3)  (   5->  12) 
 (   6->   7)  (   7->   6)  (   8->   9)  (   9->   8)  (  10->  11) 
 (  11->  10)  (  12->   5) 

 ptrans:     0.5000000     0.0000000     0.5000000
 rotmap:
 (   1->   3)  (   2->   2)  (   3->   1)  (   4->   4)  (   5->  10) 
 (   6->   5)  (   7->   8)  (   8->  11)  (   9->   6)  (  10->   9) 
 (  11->  12)  (  12->   7) 

 ptrans:     0.0000000     0.5000000     0.5000000
 rotmap:
 (   1->   2)  (   2->   3)  (   3->   4)  (   4->   1)  (   5->   8) 
 (   6->  11)  (   7->  10)  (   8->   5)  (   9->  12)  (  10->   7) 
 (  11->   6)  (  12->   9) 


 irot  :  32
 --------------------------------------------------------------------
 isymop:   0   0  -1
           0  -1   0
           1   0   0

 gtrans:     0.0000000     0.0000000     0.0000000

 ptrans:     0.0000000     0.0000000     0.0000000
 rotmap:
 (   1->   1)  (   2->   4)  (   3->   3)  (   4->   2)  (   5->  11) 
 (   6->   8)  (   7->   5)  (   8->  10)  (   9->   7)  (  10->  12) 
 (  11->   9)  (  12->   6) 

 ptrans:     0.5000000     0.5000000     0.0000000
 rotmap:
 (   1->   4)  (   2->   1)  (   3->   2)  (   4->   3)  (   5->   5) 
 (   6->  10)  (   7->  11)  (   8->   8)  (   9->   9)  (  10->   6) 
 (  11->   7)  (  12->  12) 

 ptrans:     0.5000000     0.0000000     0.5000000
 rotmap:
 (   1->   3)  (   2->   2)  (   3->   1)  (   4->   4)  (   5->   7) 
 (   6->  12)  (   7->   9)  (   8->   6)  (   9->  11)  (  10->   8) 
 (  11->   5)  (  12->  10) 

 ptrans:     0.0000000     0.5000000     0.5000000
 rotmap:
 (   1->   2)  (   2->   3)  (   3->   4)  (   4->   1)  (   5->   9) 
 (   6->   6)  (   7->   7)  (   8->  12)  (   9->   5)  (  10->  10) 
 (  11->  11)  (  12->   8) 


 irot  :  33
 --------------------------------------------------------------------
 isymop:   0   1   0
           1   0   0
           0   0  -1

 gtrans:     0.0000000     0.0000000     0.0000000

 ptrans:     0.0000000     0.0000000     0.0000000
 rotmap:
 (   1->   1)  (   2->   3)  (   3->   2)  (   4->   4)  (   5->  12) 
 (   6->  11)  (   7->   8)  (   8->   7)  (   9->  10)  (  10->   9) 
 (  11->   6)  (  12->   5) 

 ptrans:     0.5000000     0.5000000     0.0000000
 rotmap:
 (   1->   4)  (   2->   2)  (   3->   3)  (   4->   1)  (   5->   6) 
 (   6->   5)  (   7->  10)  (   8->   9)  (   9->   8)  (  10->   7) 
 (  11->  12)  (  12->  11) 

 ptrans:     0.5000000     0.0000000     0.5000000
 rotmap:
 (   1->   3)  (   2->   1)  (   3->   4)  (   4->   2)  (   5->   8) 
 (   6->   7)  (   7->  12)  (   8->  11)  (   9->   6)  (  10->   5) 
 (  11->  10)  (  12->   9) 

 ptrans:     0.0000000     0.5000000     0.5000000
 rotmap:
 (   1->   2)  (   2->   4)  (   3->   1)  (   4->   3)  (   5->  10) 
 (   6->   9)  (   7->   6)  (   8->   5)  (   9->  12)  (  10->  11) 
 (  11->   8)  (  12->   7) 


 irot  :  34
 --------------------------------------------------------------------
 isymop:   0  -1   0
          -1   0   0
           0   0   1

 gtrans:     0.0000000     0.0000000     0.0000000

 ptrans:     0.0000000     0.0000000     0.0000000
 rotmap:
 (   1->   1)  (   2->   3)  (   3->   2)  (   4->   4)  (   5->   5) 
 (   6->   6)  (   7->   9)  (   8->  10)  (   9->   7)  (  10->   8) 
 (  11->  11)  (  12->  12) 

 ptrans:     0.5000000     0.5000000     0.0000000
 rotmap:
 (   1->   4)  (   2->   2)  (   3->   3)  (   4->   1)  (   5->  11) 
 (   6->  12)  (   7->   7)  (   8->   8)  (   9->   9)  (  10->  10) 
 (  11->   5)  (  12->   6) 

 ptrans:     0.5000000     0.0000000     0.5000000
 rotmap:
 (   1->   3)  (   2->   1)  (   3->   4)  (   4->   2)  (   5->   9) 
 (   6->  10)  (   7->   5)  (   8->   6)  (   9->  11)  (  10->  12) 
 (  11->   7)  (  12->   8) 

 ptrans:     0.0000000     0.5000000     0.5000000
 rotmap:
 (   1->   2)  (   2->   4)  (   3->   1)  (   4->   3)  (   5->   7) 
 (   6->   8)  (   7->  11)  (   8->  12)  (   9->   5)  (  10->   6) 
 (  11->   9)  (  12->  10) 


 irot  :  35
 --------------------------------------------------------------------
 isymop:   1   0   0
           0   0   1
           0  -1   0

 gtrans:     0.0000000     0.0000000     0.0000000

 ptrans:     0.0000000     0.0000000     0.0000000
 rotmap:
 (   1->   1)  (   2->   2)  (   3->   4)  (   4->   3)  (   5->   8) 
 (   6->   5)  (   7->   6)  (   8->   7)  (   9->  10)  (  10->  11) 
 (  11->  12)  (  12->   9) 

 ptrans:     0.5000000     0.5000000     0.0000000
 rotmap:
 (   1->   4)  (   2->   3)  (   3->   1)  (   4->   2)  (   5->  10) 
 (   6->  11)  (   7->  12)  (   8->   9)  (   9->   8)  (  10->   5) 
 (  11->   6)  (  12->   7) 

 ptrans:     0.5000000     0.0000000     0.5000000
 rotmap:
 (   1->   3)  (   2->   4)  (   3->   2)  (   4->   1)  (   5->  12) 
 (   6->   9)  (   7->  10)  (   8->  11)  (   9->   6)  (  10->   7) 
 (  11->   8)  (  12->   5) 

 ptrans:     0.0000000     0.5000000     0.5000000
 rotmap:
 (   1->   2)  (   2->   1)  (   3->   3)  (   4->   4)  (   5->   6) 
 (   6->   7)  (   7->   8)  (   8->   5)  (   9->  12)  (  10->   9) 
 (  11->  10)  (  12->  11) 


 irot  :  36
 --------------------------------------------------------------------
 isymop:  -1   0   0
           0   0  -1
           0   1   0

 gtrans:     0.0000000     0.0000000     0.0000000

 ptrans:     0.0000000     0.0000000     0.0000000
 rotmap:
 (   1->   1)  (   2->   2)  (   3->   4)  (   4->   3)  (   5->   9) 
 (   6->  12)  (   7->  11)  (   8->  10)  (   9->   7)  (  10->   6) 
 (  11->   5)  (  12->   8) 

 ptrans:     0.5000000     0.5000000     0.0000000
 rotmap:
 (   1->   4)  (   2->   3)  (   3->   1)  (   4->   2)  (   5->   7) 
 (   6->   6)  (   7->   5)  (   8->   8)  (   9->   9)  (  10->  12) 
 (  11->  11)  (  12->  10) 

 ptrans:     0.5000000     0.0000000     0.5000000
 rotmap:
 (   1->   3)  (   2->   4)  (   3->   2)  (   4->   1)  (   5->   5) 
 (   6->   8)  (   7->   7)  (   8->   6)  (   9->  11)  (  10->  10) 
 (  11->   9)  (  12->  12) 

 ptrans:     0.0000000     0.5000000     0.5000000
 rotmap:
 (   1->   2)  (   2->   1)  (   3->   3)  (   4->   4)  (   5->  11) 
 (   6->  10)  (   7->   9)  (   8->  12)  (   9->   5)  (  10->   8) 
 (  11->   7)  (  12->   6) 


 irot  :  37
 --------------------------------------------------------------------
 isymop:   0  -1   0
           0   0   1
          -1   0   0

 gtrans:     0.0000000     0.0000000     0.0000000

 ptrans:     0.0000000     0.0000000     0.0000000
 rotmap:
 (   1->   1)  (   2->   4)  (   3->   2)  (   4->   3)  (   5->   7) 
 (   6->   6)  (   7->   9)  (   8->  12)  (   9->   5)  (  10->   8) 
 (  11->  11)  (  12->  10) 

 ptrans:     0.5000000     0.5000000     0.0000000
 rotmap:
 (   1->   4)  (   2->   1)  (   3->   3)  (   4->   2)  (   5->   9) 
 (   6->  12)  (   7->   7)  (   8->   6)  (   9->  11)  (  10->  10) 
 (  11->   5)  (  12->   8) 

 ptrans:     0.5000000     0.0000000     0.5000000
 rotmap:
 (   1->   3)  (   2->   2)  (   3->   4)  (   4->   1)  (   5->  11) 
 (   6->  10)  (   7->   5)  (   8->   8)  (   9->   9)  (  10->  12) 
 (  11->   7)  (  12->   6) 

 ptrans:     0.0000000     0.5000000     0.5000000
 rotmap:
 (   1->   2)  (   2->   3)  (   3->   1)  (   4->   4)  (   5->   5) 
 (   6->   8)  (   7->  11)  (   8->  10)  (   9->   7)  (  10->   6) 
 (  11->   9)  (  12->  12) 


 irot  :  38
 --------------------------------------------------------------------
 isymop:   0   1   0
           0   0  -1
           1   0   0

 gtrans:     0.0000000     0.0000000     0.0000000

 ptrans:     0.0000000     0.0000000     0.0000000
 rotmap:
 (   1->   1)  (   2->   4)  (   3->   2)  (   4->   3)  (   5->  10) 
 (   6->  11)  (   7->   8)  (   8->   5)  (   9->  12)  (  10->   9) 
 (  11->   6)  (  12->   7) 

 ptrans:     0.5000000     0.5000000     0.0000000
 rotmap:
 (   1->   4)  (   2->   1)  (   3->   3)  (   4->   2)  (   5->   8) 
 (   6->   5)  (   7->  10)  (   8->  11)  (   9->   6)  (  10->   7) 
 (  11->  12)  (  12->   9) 

 ptrans:     0.5000000     0.0000000     0.5000000
 rotmap:
 (   1->   3)  (   2->   2)  (   3->   4)  (   4->   1)  (   5->   6) 
 (   6->   7)  (   7->  12)  (   8->   9)  (   9->   8)  (  10->   5) 
 (  11->  10)  (  12->  11) 

 ptrans:     0.0000000     0.5000000     0.5000000
 rotmap:
 (   1->   2)  (   2->   3)  (   3->   1)  (   4->   4)  (   5->  12) 
 (   6->   9)  (   7->   6)  (   8->   7)  (   9->  10)  (  10->  11) 
 (  11->   8)  (  12->   5) 


 irot  :  39
 --------------------------------------------------------------------
 isymop:  -1   0   0
           0   1   0
           0   0  -1

 gtrans:     0.0000000     0.0000000     0.0000000

 ptrans:     0.0000000     0.0000000     0.0000000
 rotmap:
 (   1->   1)  (   2->   2)  (   3->   3)  (   4->   4)  (   5->   9) 
 (   6->  10)  (   7->  11)  (   8->  12)  (   9->   5)  (  10->   6) 
 (  11->   7)  (  12->   8) 

 ptrans:     0.5000000     0.5000000     0.0000000
 rotmap:
 (   1->   4)  (   2->   3)  (   3->   2)  (   4->   1)  (   5->   7) 
 (   6->   8)  (   7->   5)  (   8->   6)  (   9->  11)  (  10->  12) 
 (  11->   9)  (  12->  10) 

 ptrans:     0.5000000     0.0000000     0.5000000
 rotmap:
 (   1->   3)  (   2->   4)  (   3->   1)  (   4->   2)  (   5->   5) 
 (   6->   6)  (   7->   7)  (   8->   8)  (   9->   9)  (  10->  10) 
 (  11->  11)  (  12->  12) 

 ptrans:     0.0000000     0.5000000     0.5000000
 rotmap:
 (   1->   2)  (   2->   1)  (   3->   4)  (   4->   3)  (   5->  11) 
 (   6->  12)  (   7->   9)  (   8->  10)  (   9->   7)  (  10->   8) 
 (  11->   5)  (  12->   6) 


 irot  :  40
 --------------------------------------------------------------------
 isymop:   1   0   0
           0  -1   0
           0   0   1

 gtrans:     0.0000000     0.0000000     0.0000000

 ptrans:     0.0000000     0.0000000     0.0000000
 rotmap:
 (   1->   1)  (   2->   2)  (   3->   3)  (   4->   4)  (   5->   8) 
 (   6->   7)  (   7->   6)  (   8->   5)  (   9->  12)  (  10->  11) 
 (  11->  10)  (  12->   9) 

 ptrans:     0.5000000     0.5000000     0.0000000
 rotmap:
 (   1->   4)  (   2->   3)  (   3->   2)  (   4->   1)  (   5->  10) 
 (   6->   9)  (   7->  12)  (   8->  11)  (   9->   6)  (  10->   5) 
 (  11->   8)  (  12->   7) 

 ptrans:     0.5000000     0.0000000     0.5000000
 rotmap:
 (   1->   3)  (   2->   4)  (   3->   1)  (   4->   2)  (   5->  12) 
 (   6->  11)  (   7->  10)  (   8->   9)  (   9->   8)  (  10->   7) 
 (  11->   6)  (  12->   5) 

 ptrans:     0.0000000     0.5000000     0.5000000
 rotmap:
 (   1->   2)  (   2->   1)  (   3->   4)  (   4->   3)  (   5->   6) 
 (   6->   5)  (   7->   8)  (   8->   7)  (   9->  10)  (  10->   9) 
 (  11->  12)  (  12->  11) 


 irot  :  41
 --------------------------------------------------------------------
 isymop:   0   0  -1
           1   0   0
           0  -1   0

 gtrans:     0.0000000     0.0000000     0.0000000

 ptrans:     0.0000000     0.0000000     0.0000000
 rotmap:
 (   1->   1)  (   2->   3)  (   3->   4)  (   4->   2)  (   5->  11) 
 (   6->   8)  (   7->   7)  (   8->  12)  (   9->   5)  (  10->  10) 
 (  11->   9)  (  12->   6) 

 ptrans:     0.5000000     0.5000000     0.0000000
 rotmap:
 (   1->   4)  (   2->   2)  (   3->   1)  (   4->   3)  (   5->   5) 
 (   6->  10)  (   7->   9)  (   8->   6)  (   9->  11)  (  10->   8) 
 (  11->   7)  (  12->  12) 

 ptrans:     0.5000000     0.0000000     0.5000000
 rotmap:
 (   1->   3)  (   2->   1)  (   3->   2)  (   4->   4)  (   5->   7) 
 (   6->  12)  (   7->  11)  (   8->   8)  (   9->   9)  (  10->   6) 
 (  11->   5)  (  12->  10) 

 ptrans:     0.0000000     0.5000000     0.5000000
 rotmap:
 (   1->   2)  (   2->   4)  (   3->   3)  (   4->   1)  (   5->   9) 
 (   6->   6)  (   7->   5)  (   8->  10)  (   9->   7)  (  10->  12) 
 (  11->  11)  (  12->   8) 


 irot  :  42
 --------------------------------------------------------------------
 isymop:   0   0   1
          -1   0   0
           0   1   0

 gtrans:     0.0000000     0.0000000     0.0000000

 ptrans:     0.0000000     0.0000000     0.0000000
 rotmap:
 (   1->   1)  (   2->   3)  (   3->   4)  (   4->   2)  (   5->   6) 
 (   6->   9)  (   7->  10)  (   8->   5)  (   9->  12)  (  10->   7) 
 (  11->   8)  (  12->  11) 

 ptrans:     0.5000000     0.5000000     0.0000000
 rotmap:
 (   1->   4)  (   2->   2)  (   3->   1)  (   4->   3)  (   5->  12) 
 (   6->   7)  (   7->   8)  (   8->  11)  (   9->   6)  (  10->   9) 
 (  11->  10)  (  12->   5) 

 ptrans:     0.5000000     0.0000000     0.5000000
 rotmap:
 (   1->   3)  (   2->   1)  (   3->   2)  (   4->   4)  (   5->  10) 
 (   6->   5)  (   7->   6)  (   8->   9)  (   9->   8)  (  10->  11) 
 (  11->  12)  (  12->   7) 

 ptrans:     0.0000000     0.5000000     0.5000000
 rotmap:
 (   1->   2)  (   2->   4)  (   3->   3)  (   4->   1)  (   5->   8) 
 (   6->  11)  (   7->  12)  (   8->   7)  (   9->  10)  (  10->   5) 
 (  11->   6)  (  12->   9) 


 irot  :  43
 --------------------------------------------------------------------
 isymop:  -1   0   0
           0   0  -1
           0  -1   0

 gtrans:     0.0000000     0.0000000     0.0000000

 ptrans:     0.0000000     0.0000000     0.0000000
 rotmap:
 (   1->   1)  (   2->   2)  (   3->   4)  (   4->   3)  (   5->  10) 
 (   6->  11)  (   7->  12)  (   8->   9)  (   9->   8)  (  10->   5) 
 (  11->   6)  (  12->   7) 

 ptrans:     0.5000000     0.5000000     0.0000000
 rotmap:
 (   1->   4)  (   2->   3)  (   3->   1)  (   4->   2)  (   5->   8) 
 (   6->   5)  (   7->   6)  (   8->   7)  (   9->  10)  (  10->  11) 
 (  11->  12)  (  12->   9) 

 ptrans:     0.5000000     0.0000000     0.5000000
 rotmap:
 (   1->   3)  (   2->   4)  (   3->   2)  (   4->   1)  (   5->   6) 
 (   6->   7)  (   7->   8)  (   8->   5)  (   9->  12)  (  10->   9) 
 (  11->  10)  (  12->  11) 

 ptrans:     0.0000000     0.5000000     0.5000000
 rotmap:
 (   1->   2)  (   2->   1)  (   3->   3)  (   4->   4)  (   5->  12) 
 (   6->   9)  (   7->  10)  (   8->  11)  (   9->   6)  (  10->   7) 
 (  11->   8)  (  12->   5) 


 irot  :  44
 --------------------------------------------------------------------
 isymop:   1   0   0
           0   0   1
           0   1   0

 gtrans:     0.0000000     0.0000000     0.0000000

 ptrans:     0.0000000     0.0000000     0.0000000
 rotmap:
 (   1->   1)  (   2->   2)  (   3->   4)  (   4->   3)  (   5->   7) 
 (   6->   6)  (   7->   5)  (   8->   8)  (   9->   9)  (  10->  12) 
 (  11->  11)  (  12->  10) 

 ptrans:     0.5000000     0.5000000     0.0000000
 rotmap:
 (   1->   4)  (   2->   3)  (   3->   1)  (   4->   2)  (   5->   9) 
 (   6->  12)  (   7->  11)  (   8->  10)  (   9->   7)  (  10->   6) 
 (  11->   5)  (  12->   8) 

 ptrans:     0.5000000     0.0000000     0.5000000
 rotmap:
 (   1->   3)  (   2->   4)  (   3->   2)  (   4->   1)  (   5->  11) 
 (   6->  10)  (   7->   9)  (   8->  12)  (   9->   5)  (  10->   8) 
 (  11->   7)  (  12->   6) 

 ptrans:     0.0000000     0.5000000     0.5000000
 rotmap:
 (   1->   2)  (   2->   1)  (   3->   3)  (   4->   4)  (   5->   5) 
 (   6->   8)  (   7->   7)  (   8->   6)  (   9->  11)  (  10->  10) 
 (  11->   9)  (  12->  12) 


 irot  :  45
 --------------------------------------------------------------------
 isymop:   0  -1   0
          -1   0   0
           0   0  -1

 gtrans:     0.0000000     0.0000000     0.0000000

 ptrans:     0.0000000     0.0000000     0.0000000
 rotmap:
 (   1->   1)  (   2->   3)  (   3->   2)  (   4->   4)  (   5->   6) 
 (   6->   5)  (   7->  10)  (   8->   9)  (   9->   8)  (  10->   7) 
 (  11->  12)  (  12->  11) 

 ptrans:     0.5000000     0.5000000     0.0000000
 rotmap:
 (   1->   4)  (   2->   2)  (   3->   3)  (   4->   1)  (   5->  12) 
 (   6->  11)  (   7->   8)  (   8->   7)  (   9->  10)  (  10->   9) 
 (  11->   6)  (  12->   5) 

 ptrans:     0.5000000     0.0000000     0.5000000
 rotmap:
 (   1->   3)  (   2->   1)  (   3->   4)  (   4->   2)  (   5->  10) 
 (   6->   9)  (   7->   6)  (   8->   5)  (   9->  12)  (  10->  11) 
 (  11->   8)  (  12->   7) 

 ptrans:     0.0000000     0.5000000     0.5000000
 rotmap:
 (   1->   2)  (   2->   4)  (   3->   1)  (   4->   3)  (   5->   8) 
 (   6->   7)  (   7->  12)  (   8->  11)  (   9->   6)  (  10->   5) 
 (  11->  10)  (  12->   9) 


 irot  :  46
 --------------------------------------------------------------------
 isymop:   0   1   0
           1   0   0
           0   0   1

 gtrans:     0.0000000     0.0000000     0.0000000

 ptrans:     0.0000000     0.0000000     0.0000000
 rotmap:
 (   1->   1)  (   2->   3)  (   3->   2)  (   4->   4)  (   5->  11) 
 (   6->  12)  (   7->   7)  (   8->   8)  (   9->   9)  (  10->  10) 
 (  11->   5)  (  12->   6) 

 ptrans:     0.5000000     0.5000000     0.0000000
 rotmap:
 (   1->   4)  (   2->   2)  (   3->   3)  (   4->   1)  (   5->   5) 
 (   6->   6)  (   7->   9)  (   8->  10)  (   9->   7)  (  10->   8) 
 (  11->  11)  (  12->  12) 

 ptrans:     0.5000000     0.0000000     0.5000000
 rotmap:
 (   1->   3)  (   2->   1)  (   3->   4)  (   4->   2)  (   5->   7) 
 (   6->   8)  (   7->  11)  (   8->  12)  (   9->   5)  (  10->   6) 
 (  11->   9)  (  12->  10) 

 ptrans:     0.0000000     0.5000000     0.5000000
 rotmap:
 (   1->   2)  (   2->   4)  (   3->   1)  (   4->   3)  (   5->   9) 
 (   6->  10)  (   7->   5)  (   8->   6)  (   9->  11)  (  10->  12) 
 (  11->   7)  (  12->   8) 


 irot  :  47
 --------------------------------------------------------------------
 isymop:   0   0  -1
           0  -1   0
          -1   0   0

 gtrans:     0.0000000     0.0000000     0.0000000

 ptrans:     0.0000000     0.0000000     0.0000000
 rotmap:
 (   1->   1)  (   2->   4)  (   3->   3)  (   4->   2)  (   5->  12) 
 (   6->   7)  (   7->   6)  (   8->   9)  (   9->   8)  (  10->  11) 
 (  11->  10)  (  12->   5) 

 ptrans:     0.5000000     0.5000000     0.0000000
 rotmap:
 (   1->   4)  (   2->   1)  (   3->   2)  (   4->   3)  (   5->   6) 
 (   6->   9)  (   7->  12)  (   8->   7)  (   9->  10)  (  10->   5) 
 (  11->   8)  (  12->  11) 

 ptrans:     0.5000000     0.0000000     0.5000000
 rotmap:
 (   1->   3)  (   2->   2)  (   3->   1)  (   4->   4)  (   5->   8) 
 (   6->  11)  (   7->  10)  (   8->   5)  (   9->  12)  (  10->   7) 
 (  11->   6)  (  12->   9) 

 ptrans:     0.0000000     0.5000000     0.5000000
 rotmap:
 (   1->   2)  (   2->   3)  (   3->   4)  (   4->   1)  (   5->  10) 
 (   6->   5)  (   7->   8)  (   8->  11)  (   9->   6)  (  10->   9) 
 (  11->  12)  (  12->   7) 


 irot  :  48
 --------------------------------------------------------------------
 isymop:   0   0   1
           0   1   0
           1   0   0

 gtrans:     0.0000000     0.0000000     0.0000000

 ptrans:     0.0000000     0.0000000     0.0000000
 rotmap:
 (   1->   1)  (   2->   4)  (   3->   3)  (   4->   2)  (   5->   5) 
 (   6->  10)  (   7->  11)  (   8->   8)  (   9->   9)  (  10->   6) 
 (  11->   7)  (  12->  12) 

 ptrans:     0.5000000     0.5000000     0.0000000
 rotmap:
 (   1->   4)  (   2->   1)  (   3->   2)  (   4->   3)  (   5->  11) 
 (   6->   8)  (   7->   5)  (   8->  10)  (   9->   7)  (  10->  12) 
 (  11->   9)  (  12->   6) 

 ptrans:     0.5000000     0.0000000     0.5000000
 rotmap:
 (   1->   3)  (   2->   2)  (   3->   1)  (   4->   4)  (   5->   9) 
 (   6->   6)  (   7->   7)  (   8->  12)  (   9->   5)  (  10->  10) 
 (  11->  11)  (  12->   8) 

 ptrans:     0.0000000     0.5000000     0.5000000
 rotmap:
 (   1->   2)  (   2->   3)  (   3->   4)  (   4->   1)  (   5->   7) 
 (   6->  12)  (   7->   9)  (   8->   6)  (   9->  11)  (  10->   8) 
 (  11->   5)  (  12->  10) 
 
 
 KPOINTS: Automatic mesh                          

Automatic generation of k-mesh.
Space group operators:
 irot       det(A)        alpha          n_x          n_y          n_z        tau_x        tau_y        tau_z
    1     1.000000     0.000000     1.000000     0.000000     0.000000     0.000000     0.000000     0.000000
    2    -1.000000     0.000000     1.000000     0.000000     0.000000     0.000000     0.000000     0.000000
    3     1.000000   120.000000    -0.577350    -0.577350    -0.577350     0.000000     0.000000     0.000000
    4    -1.000000   120.000000    -0.577350    -0.577350    -0.577350     0.000000     0.000000     0.000000
    5     1.000000   120.000000     0.577350     0.577350     0.577350     0.000000     0.000000     0.000000
    6    -1.000000   120.000000     0.577350     0.577350     0.577350     0.000000     0.000000     0.000000
    7     1.000000    90.000000     0.000000     0.000000    -1.000000     0.000000     0.000000     0.000000
    8    -1.000000    90.000000     0.000000     0.000000    -1.000000     0.000000     0.000000     0.000000
    9     1.000000   180.000000     0.000000    -0.707107    -0.707107     0.000000     0.000000     0.000000
   10    -1.000000   180.000000     0.000000    -0.707107    -0.707107     0.000000     0.000000     0.000000
   11     1.000000    90.000000     0.000000     1.000000     0.000000     0.000000     0.000000     0.000000
   12    -1.000000    90.000000     0.000000     1.000000     0.000000     0.000000     0.000000     0.000000
   13     1.000000   180.000000    -0.000000    -0.000000     1.000000     0.000000     0.000000     0.000000
   14    -1.000000   180.000000    -0.000000    -0.000000     1.000000     0.000000     0.000000     0.000000
   15     1.000000   120.000000    -0.577350     0.577350     0.577350     0.000000     0.000000     0.000000
   16    -1.000000   120.000000    -0.577350     0.577350     0.577350     0.000000     0.000000     0.000000
   17     1.000000   120.000000    -0.577350     0.577350    -0.577350     0.000000     0.000000     0.000000
   18    -1.000000   120.000000    -0.577350     0.577350    -0.577350     0.000000     0.000000     0.000000
   19     1.000000    90.000000    -0.000000    -0.000000     1.000000     0.000000     0.000000     0.000000
   20    -1.000000    90.000000    -0.000000    -0.000000     1.000000     0.000000     0.000000     0.000000
   21     1.000000    90.000000    -1.000000     0.000000    -0.000000     0.000000     0.000000     0.000000
   22    -1.000000    90.000000    -1.000000     0.000000    -0.000000     0.000000     0.000000     0.000000
   23     1.000000   180.000000    -0.707107     0.000000    -0.707107     0.000000     0.000000     0.000000
   24    -1.000000   180.000000    -0.707107     0.000000    -0.707107     0.000000     0.000000     0.000000
   25     1.000000   120.000000     0.577350    -0.577350     0.577350     0.000000     0.000000     0.000000
   26    -1.000000   120.000000     0.577350    -0.577350     0.577350     0.000000     0.000000     0.000000
   27     1.000000   120.000000    -0.577350    -0.577350     0.577350     0.000000     0.000000     0.000000
   28    -1.000000   120.000000    -0.577350    -0.577350     0.577350     0.000000     0.000000     0.000000
   29     1.000000   180.000000     1.000000    -0.000000     0.000000     0.000000     0.000000     0.000000
   30    -1.000000   180.000000     1.000000    -0.000000     0.000000     0.000000     0.000000     0.000000
   31     1.000000    90.000000    -0.000000    -1.000000     0.000000     0.000000     0.000000     0.000000
   32    -1.000000    90.000000    -0.000000    -1.000000     0.000000     0.000000     0.000000     0.000000
   33     1.000000   180.000000     0.707107     0.707107     0.000000     0.000000     0.000000     0.000000
   34    -1.000000   180.000000     0.707107     0.707107     0.000000     0.000000     0.000000     0.000000
   35     1.000000    90.000000     1.000000    -0.000000    -0.000000     0.000000     0.000000     0.000000
   36    -1.000000    90.000000     1.000000    -0.000000    -0.000000     0.000000     0.000000     0.000000
   37     1.000000   120.000000     0.577350    -0.577350    -0.577350     0.000000     0.000000     0.000000
   38    -1.000000   120.000000     0.577350    -0.577350    -0.577350     0.000000     0.000000     0.000000
   39     1.000000   180.000000     0.000000     1.000000     0.000000     0.000000     0.000000     0.000000
   40    -1.000000   180.000000     0.000000     1.000000     0.000000     0.000000     0.000000     0.000000
   41     1.000000   120.000000     0.577350     0.577350    -0.577350     0.000000     0.000000     0.000000
   42    -1.000000   120.000000     0.577350     0.577350    -0.577350     0.000000     0.000000     0.000000
   43     1.000000   180.000000    -0.000000    -0.707107     0.707107     0.000000     0.000000     0.000000
   44    -1.000000   180.000000    -0.000000    -0.707107     0.707107     0.000000     0.000000     0.000000
   45     1.000000   180.000000     0.707107    -0.707107     0.000000     0.000000     0.000000     0.000000
   46    -1.000000   180.000000     0.707107    -0.707107     0.000000     0.000000     0.000000     0.000000
   47     1.000000   180.000000     0.707107    -0.000000    -0.707107     0.000000     0.000000     0.000000
   48    -1.000000   180.000000     0.707107    -0.000000    -0.707107     0.000000     0.000000     0.000000
 
 Subroutine IBZKPT returns following result:
 ===========================================
 
 Found     35 irreducible k-points:
 
 Following reciprocal coordinates:
            Coordinates               Weight
  0.000000  0.000000  0.000000      1.000000
  0.125000  0.000000  0.000000      6.000000
  0.250000  0.000000  0.000000      6.000000
  0.375000 -0.000000  0.000000      6.000000
  0.500000  0.000000  0.000000      3.000000
  0.125000  0.125000  0.000000     12.000000
  0.250000  0.125000  0.000000     24.000000
  0.375000  0.125000  0.000000     24.000000
  0.500000  0.125000  0.000000     12.000000
  0.250000  0.250000  0.000000     12.000000
  0.375000  0.250000  0.000000     24.000000
  0.500000  0.250000  0.000000     12.000000
  0.375000  0.375000  0.000000     12.000000
  0.500000  0.375000  0.000000     12.000000
  0.500000  0.500000  0.000000      3.000000
  0.125000  0.125000  0.125000      8.000000
  0.250000  0.125000  0.125000     24.000000
  0.375000  0.125000  0.125000     24.000000
  0.500000  0.125000  0.125000     12.000000
  0.250000  0.250000  0.125000     24.000000
  0.375000  0.250000  0.125000     48.000000
  0.500000  0.250000  0.125000     24.000000
  0.375000  0.375000  0.125000     24.000000
  0.500000  0.375000  0.125000     24.000000
  0.500000  0.500000  0.125000      6.000000
  0.250000  0.250000  0.250000      8.000000
  0.375000  0.250000  0.250000     24.000000
  0.500000  0.250000  0.250000     12.000000
  0.375000  0.375000  0.250000     24.000000
  0.500000  0.375000  0.250000     24.000000
  0.500000  0.500000  0.250000      6.000000
  0.375000  0.375000  0.375000      8.000000
  0.500000  0.375000  0.375000     12.000000
  0.500000  0.500000  0.375000      6.000000
  0.500000  0.500000  0.500000      1.000000
 
 Following cartesian coordinates:
            Coordinates               Weight
  0.000000  0.000000  0.000000      1.000000
  0.022661 -0.000000  0.000000      6.000000
  0.045322 -0.000000  0.000000      6.000000
  0.067983 -0.000000  0.000000      6.000000
  0.090645 -0.000000  0.000000      3.000000
  0.022661  0.022661  0.000000     12.000000
  0.045322  0.022661  0.000000     24.000000
  0.067983  0.022661  0.000000     24.000000
  0.090645  0.022661  0.000000     12.000000
  0.045322  0.045322  0.000000     12.000000
  0.067983  0.045322  0.000000     24.000000
  0.090645  0.045322  0.000000     12.000000
  0.067983  0.067983  0.000000     12.000000
  0.090645  0.067983  0.000000     12.000000
  0.090645  0.090645  0.000000      3.000000
  0.022661  0.022661  0.022661      8.000000
  0.045322  0.022661  0.022661     24.000000
  0.067983  0.022661  0.022661     24.000000
  0.090645  0.022661  0.022661     12.000000
  0.045322  0.045322  0.022661     24.000000
  0.067983  0.045322  0.022661     48.000000
  0.090645  0.045322  0.022661     24.000000
  0.067983  0.067983  0.022661     24.000000
  0.090645  0.067983  0.022661     24.000000
  0.090645  0.090645  0.022661      6.000000
  0.045322  0.045322  0.045322      8.000000
  0.067983  0.045322  0.045322     24.000000
  0.090645  0.045322  0.045322     12.000000
  0.067983  0.067983  0.045322     24.000000
  0.090645  0.067983  0.045322     24.000000
  0.090645  0.090645  0.045322      6.000000
  0.067983  0.067983  0.067983      8.000000
  0.090645  0.067983  0.067983     12.000000
  0.090645  0.090645  0.067983      6.000000
  0.090645  0.090645  0.090645      1.000000
 


--------------------------------------------------------------------------------------------------------




 Dimension of arrays:
   k-points           NKPTS =     35   k-points in BZ     NKDIM =     35   number of bands    NBANDS=     64
   number of dos      NEDOS =    301   number of ions     NIONS =     12
   non local maximal  LDIM  =      7   non local SUM 2l+1 LMDIM =     19
   total plane-waves  NPLWV =  64000
   max r-space proj   IRMAX =      1   max aug-charges    IRDMAX=  15213
   dimension x,y,z NGX =    40 NGY =   40 NGZ =   40
   dimension x,y,z NGXF=    80 NGYF=   80 NGZF=   80
   support grid    NGXF=    80 NGYF=   80 NGZF=   80
   ions per type =               4   8
 NGX,Y,Z   is equivalent  to a cutoff of  12.06, 12.06, 12.06 a.u.
 NGXF,Y,Z  is equivalent  to a cutoff of  24.11, 24.11, 24.11 a.u.


 I would recommend the setting:
   dimension x,y,z NGX =    40 NGY =   40 NGZ =   40
 SYSTEM =  Fluorite (relax)                        
 POSCAR =  Ca4 F8                                  

 Startparameter for this run:
   NWRITE =      2    write-flag & timer
   PREC   = accura    normal or accurate (medium, high low for compatibility)
   ISTART =      0    job   : 0-new  1-cont  2-samecut
   ICHARG =      2    charge: 1-file 2-atom 10-const
   ISPIN  =      2    spin polarized calculation?
   LNONCOLLINEAR =      F non collinear calculations
   LSORBIT =      F    spin-orbit coupling
   INIWAV =      1    electr: 0-lowe 1-rand  2-diag
   LASPH  =      F    aspherical Exc in radial PAW
   METAGGA=      F    non-selfconsistent MetaGGA calc.

 Electronic Relaxation 1
   ENCUT  =  500.0 eV  36.75 Ry    6.06 a.u.  10.06 10.06 10.06*2*pi/ulx,y,z
   ENINI  =  500.0     initial cutoff
   ENAUG  =  613.6 eV  augmentation charge cutoff
   NELM   =    100;   NELMIN=  2; NELMDL= -5     # of ELM steps 
   EDIFF  = 0.1E-04   stopping-criterion for ELM
   LREAL  =      F    real-space projection
   NLSPLINE    = F    spline interpolate recip. space projectors
   LCOMPAT=      F    compatible to vasp.4.4
   GGA_COMPAT  = T    GGA compatible to vasp.4.4-vasp.4.6
   LMAXPAW     = -100 max onsite density
   LMAXMIX     =    2 max onsite mixed and CHGCAR
   VOSKOWN=      0    Vosko Wilk Nusair interpolation
   ROPT   =    0.00000   0.00000
 Ionic relaxation
   EDIFFG = -.1E-01   stopping-criterion for IOM
   NSW    =    200    number of steps for IOM
   NBLOCK =      1;   KBLOCK =    200    inner block; outer block 
   IBRION =      2    ionic relax: 0-MD 1-quasi-New 2-CG
   NFREE  =      1    steps in history (QN), initial steepest desc. (CG)
   ISIF   =      3    stress and relaxation
   IWAVPR =     11    prediction:  0-non 1-charg 2-wave 3-comb
   ISYM   =      2    0-nonsym 1-usesym 2-fastsym
   LCORR  =      T    Harris-Foulkes like correction to forces

   POTIM  = 0.5000    time-step for ionic-motion
   TEIN   =    0.0    initial temperature
   TEBEG  =    0.0;   TEEND  =   0.0 temperature during run
   SMASS  =  -3.00    Nose mass-parameter (am)
[...]
     37      -0.7531      1.00000
     38      -0.7531      1.00000
     39      -0.7531      1.00000
     40      -0.7531      1.00000
     41      -0.3601      1.00000
     42      -0.3601      1.00000
     43      -0.3601      1.00000
     44      -0.3601      1.00000
     45      -0.3601      1.00000
     46      -0.3601      1.00000
     47      -0.3601      1.00000
     48      -0.3601      1.00000
     49       9.7730      0.00000
     50       9.7730      0.00000
     51       9.7730      0.00000
     52       9.7730      0.00000
     53       9.7730      0.00000
     54       9.7730      0.00000
     55       9.7730      0.00000
     56       9.7730      0.00000
     57      10.1033      0.00000
     58      10.1033      0.00000
     59      10.1033      0.00000
     60      10.1033      0.00000
     61      11.1098      0.00000
     62      11.1098      0.00000
     63      11.1098      0.00000
     64      11.1098      0.00000


--------------------------------------------------------------------------------------------------------


 soft charge-density along one line, spin component           1
         0         1         2         3         4         5         6         7         8         9
 total charge-density along one line
 
 soft charge-density along one line, spin component           2
         0         1         2         3         4         5         6         7         8         9
 total charge-density along one line
 
 pseudopotential strength for first ion, spin component:           1
 53.382  50.294  38.121   0.000   0.000  -0.000   0.000   0.000
 50.294  47.386  35.800   0.000   0.000  -0.000   0.000   0.000
 38.121  35.800  35.070   0.000   0.000  -0.000   0.000   0.000
  0.000   0.000   0.000  -3.716  -0.000   0.000   2.153   0.000
  0.000   0.000   0.000  -0.000  -3.716   0.000   0.000   2.153
 -0.000  -0.000  -0.000   0.000   0.000  -3.716  -0.000  -0.000
  0.000   0.000   0.000   2.153   0.000  -0.000  10.159  -0.000
  0.000   0.000   0.000   0.000   2.153  -0.000  -0.000  10.159
 -0.000  -0.000  -0.000  -0.000  -0.000   2.153   0.000   0.000
  0.000   0.000   0.000   0.000   0.000  -0.000  -0.000  -0.000
 -0.000  -0.000  -0.000  -0.000  -0.000   0.000   0.000   0.000
  0.000   0.000   0.000   0.000  -0.000  -0.000  -0.000   0.000
  0.000   0.000   0.000   0.000   0.000  -0.000  -0.000  -0.000
 -0.000  -0.000  -0.000   0.000  -0.000   0.000  -0.000   0.000
  0.000   0.000   0.000   0.000   0.000  -0.000  -0.000  -0.000
 -0.000  -0.000  -0.000  -0.000  -0.000   0.000   0.000   0.000
  0.000   0.000   0.000   0.000  -0.000  -0.000  -0.000   0.000
  0.000   0.000   0.000   0.000   0.000  -0.000  -0.000  -0.000
 -0.000  -0.000  -0.000   0.000  -0.000   0.000  -0.000   0.000
 pseudopotential strength for first ion, spin component:           2
 53.382  50.294  38.122   0.000   0.000  -0.000   0.000   0.000
 50.294  47.386  35.800   0.000   0.000  -0.000   0.000   0.000
 38.122  35.800  35.070   0.000   0.000  -0.000   0.000   0.000
  0.000   0.000   0.000  -3.716  -0.000   0.000   2.153   0.000
  0.000   0.000   0.000  -0.000  -3.716   0.000   0.000   2.153
 -0.000  -0.000  -0.000   0.000   0.000  -3.716  -0.000  -0.000
  0.000   0.000   0.000   2.153   0.000  -0.000  10.159  -0.000
  0.000   0.000   0.000   0.000   2.153  -0.000  -0.000  10.159
 -0.000  -0.000  -0.000  -0.000  -0.000   2.153   0.000   0.000
  0.000   0.000   0.000   0.000   0.000  -0.000  -0.000  -0.000
 -0.000  -0.000  -0.000  -0.000  -0.000   0.000   0.000   0.000
  0.000   0.000   0.000   0.000  -0.000  -0.000  -0.000   0.000
  0.000   0.000   0.000   0.000   0.000  -0.000  -0.000  -0.000
 -0.000  -0.000  -0.000   0.000  -0.000   0.000  -0.000   0.000
  0.000   0.000   0.000   0.000   0.000  -0.000  -0.000  -0.000
 -0.000  -0.000  -0.000  -0.000  -0.000   0.000   0.000   0.000
  0.000   0.000   0.000   0.000  -0.000  -0.000  -0.000   0.000
  0.000   0.000   0.000   0.000   0.000  -0.000  -0.000  -0.000
 -0.000  -0.000  -0.000   0.000  -0.000   0.000  -0.000   0.000
 total augmentation occupancy for first ion, spin component:           1
 16.318 -14.493   0.081   0.000   0.000   0.000   0.000  -0.000  -0.000   0.000  -0.000   0.000  -0.000  -0.000   0.000  -0.000
-14.493  14.683  -0.073  -0.000   0.000  -0.000  -0.000   0.000   0.000  -0.000   0.000  -0.000  -0.000   0.000   0.000  -0.000
  0.081  -0.073   0.000   0.000   0.000   0.000  -0.000   0.000   0.000  -0.000   0.000  -0.000  -0.000   0.000   0.000   0.000
 -0.000  -0.000  -0.000   2.028   0.000   0.000  -0.036  -0.000  -0.000   0.000  -0.000   0.000  -0.000   0.000   0.000   0.000
  0.000   0.000  -0.000   0.000   2.028   0.000  -0.000  -0.036  -0.000   0.000   0.000   0.000   0.000   0.000  -0.000  -0.000
  0.000  -0.000   0.000   0.000   0.000   2.028  -0.000  -0.000  -0.036  -0.000  -0.000  -0.000   0.000   0.000  -0.000  -0.000
  0.000  -0.000  -0.000  -0.036  -0.000  -0.000   0.008   0.000   0.000  -0.000   0.000  -0.000   0.000   0.000   0.000  -0.000
 -0.000   0.000   0.000  -0.000  -0.036  -0.000   0.000   0.008   0.000  -0.000  -0.000   0.000   0.000  -0.000  -0.000   0.000
 -0.000   0.000  -0.000  -0.000  -0.000  -0.036   0.000   0.000   0.008  -0.000  -0.000   0.000   0.000  -0.000   0.000  -0.000
  0.000  -0.000  -0.000   0.000   0.000  -0.000  -0.000  -0.000  -0.000   1.685   0.000  -0.000   0.000   0.000  -0.729  -0.000
 -0.000  -0.000  -0.000  -0.000   0.000  -0.000   0.000  -0.000  -0.000   0.000   1.685   0.000   0.000  -0.000  -0.000  -0.729
 -0.000  -0.000   0.000   0.000  -0.000  -0.000   0.000  -0.000   0.000  -0.000   0.000   0.426   0.000  -0.000   0.000  -0.000
 -0.000   0.000  -0.000  -0.000   0.000   0.000   0.000   0.000   0.000   0.000   0.000   0.000   1.685   0.000  -0.000  -0.000
  0.000   0.000   0.000   0.000   0.000   0.000   0.000  -0.000   0.000   0.000  -0.000  -0.000   0.000   0.426  -0.000   0.000
 -0.000   0.000  -0.000   0.000  -0.000  -0.000   0.000  -0.000   0.000  -0.729  -0.000   0.000  -0.000  -0.000   0.317   0.000
 -0.000   0.000  -0.000   0.000  -0.000  -0.000  -0.000   0.000  -0.000  -0.000  -0.729  -0.000  -0.000   0.000   0.000   0.317
 -0.000   0.000   0.000   0.000  -0.000   0.000   0.000  -0.000   0.000   0.000  -0.000  -0.183  -0.000   0.000  -0.000   0.000
  0.000   0.000  -0.000   0.000   0.000  -0.000   0.000  -0.000  -0.000  -0.000  -0.000  -0.000  -0.729  -0.000   0.000   0.000
 -0.000  -0.000  -0.000   0.000  -0.000  -0.000   0.000   0.000  -0.000  -0.000   0.000   0.000  -0.000  -0.183   0.000  -0.000
 total augmentation occupancy for first ion, spin component:           2
  0.000   0.000   0.000   0.000   0.000   0.000   0.000   0.000  -0.000  -0.000  -0.000   0.000  -0.000  -0.000  -0.000  -0.000
  0.000  -0.000  -0.000  -0.000  -0.000   0.000  -0.000   0.000   0.000   0.000   0.000  -0.000   0.000   0.000   0.000  -0.000
  0.000  -0.000   0.000   0.000   0.000  -0.000   0.000   0.000   0.000   0.000   0.000   0.000   0.000  -0.000   0.000  -0.000
  0.000  -0.000  -0.000   0.000   0.000   0.000   0.000   0.000   0.000   0.000   0.000  -0.000  -0.000   0.000  -0.000   0.000
 -0.000   0.000   0.000   0.000   0.000   0.000  -0.000   0.000   0.000   0.000   0.000   0.000   0.000  -0.000  -0.000   0.000
 -0.000   0.000  -0.000   0.000   0.000   0.000   0.000   0.000   0.000   0.000  -0.000  -0.000   0.000   0.000   0.000   0.000
  0.000  -0.000   0.000   0.000  -0.000   0.000   0.000   0.000   0.000  -0.000   0.000   0.000  -0.000   0.000   0.000  -0.000
  0.000   0.000   0.000   0.000   0.000   0.000   0.000   0.000   0.000  -0.000   0.000   0.000   0.000  -0.000   0.000   0.000
 -0.000   0.000   0.000   0.000   0.000   0.000   0.000   0.000   0.000   0.000  -0.000   0.000   0.000   0.000   0.000  -0.000
 -0.000   0.000   0.000   0.000   0.000   0.000  -0.000  -0.000   0.000  -0.000   0.000  -0.000   0.000  -0.000   0.000   0.000
 -0.000   0.000   0.000   0.000   0.000  -0.000   0.000   0.000  -0.000   0.000  -0.000   0.000   0.000   0.000   0.000   0.000
  0.000  -0.000   0.000   0.000   0.000   0.000  -0.000   0.000  -0.000  -0.000   0.000   0.000   0.000  -0.000   0.000   0.000
 -0.000   0.000   0.000  -0.000   0.000   0.000  -0.000   0.000   0.000   0.000   0.000   0.000  -0.000  -0.000   0.000   0.000
 -0.000   0.000   0.000   0.000  -0.000   0.000  -0.000   0.000  -0.000  -0.000  -0.000  -0.000  -0.000   0.000   0.000   0.000
 -0.000   0.000   0.000  -0.000  -0.000   0.000   0.000   0.000   0.000   0.000   0.000   0.000   0.000   0.000  -0.000  -0.000
 -0.000  -0.000  -0.000   0.000   0.000   0.000  -0.000   0.000  -0.000   0.000   0.000  -0.000   0.000   0.000  -0.000  -0.000
 -0.000   0.000   0.000  -0.000   0.000   0.000  -0.000  -0.000  -0.000  -0.000  -0.000   0.000   0.000  -0.000  -0.000   0.000
 -0.000   0.000  -0.000  -0.000  -0.000  -0.000   0.000  -0.000   0.000   0.000   0.000   0.000   0.000   0.000   0.000  -0.000
  0.000  -0.000  -0.000   0.000   0.000  -0.000   0.000  -0.000   0.000   0.000   0.000  -0.000  -0.000   0.000  -0.000   0.000


------------------------ aborting loop because EDIFF is reached ----------------------------------------


 


 total charge     
 
# of ion     s       p       d       tot
----------------------------------------
  1        2.133   5.931   0.231   8.295
  2        2.133   5.931   0.231   8.295
  3        2.133   5.931   0.231   8.295
  4        2.133   5.931   0.231   8.295
  5        1.735   4.387   0.000   6.122
  6        1.735   4.387   0.000   6.122
  7        1.735   4.387   0.000   6.122
  8        1.735   4.387   0.000   6.122
  9        1.735   4.387   0.000   6.122
 10        1.735   4.387   0.000   6.122
 11        1.735   4.387   0.000   6.122
 12        1.735   4.387   0.000   6.122
------------------------------------------------
tot       22.411  58.817   0.923  82.152
 


 magnetization (x)
 
# of ion     s       p       d       tot
----------------------------------------
  1        0.000   0.000  -0.000   0.000
  2        0.000   0.000  -0.000   0.000
  3        0.000   0.000  -0.000   0.000
  4        0.000   0.000  -0.000   0.000
  5       -0.000  -0.000   0.000  -0.000
  6       -0.000  -0.000   0.000  -0.000
  7       -0.000  -0.000   0.000  -0.000
  8       -0.000  -0.000   0.000  -0.000
  9       -0.000  -0.000   0.000  -0.000
 10       -0.000  -0.000   0.000  -0.000
 11       -0.000  -0.000   0.000  -0.000
 12       -0.000  -0.000   0.000  -0.000
------------------------------------------------
tot       -0.000  -0.000  -0.000  -0.000
 
    CHARGE:  cpu time    0.30: real time    0.31
    FORLOC:  cpu time    0.00: real time    0.00
    FORNL :  cpu time    0.71: real time    0.71
    STRESS:  cpu time    1.79: real time    1.79
    FORCOR:  cpu time    0.03: real time    0.03
    FORHAR:  cpu time    0.00: real time    0.00
    MIXING:  cpu time    0.00: real time    0.00

  FORCE on cell =-STRESS in cart. coord.  units (eV):
  Direction    XX          YY          ZZ          XY          YZ          ZX
  --------------------------------------------------------------------------------------
  Alpha Z   260.01377   260.01377   260.01377
  Ewald   -2165.96958 -2165.96958 -2165.96958    -0.00000    -0.00000    -0.00000
  Hartree   855.03202   855.03202   855.03202    -0.00000    -0.00000    -0.00000
  E(xc)    -501.99109  -501.99109  -501.99109    -0.00000     0.00000     0.00000
  Local    -639.85196  -639.85196  -639.85196     0.00000    -0.00000     0.00000
  n-local   -93.89576   -94.55311   -95.13074     0.01177    -0.00394     0.00351
  augment   147.44251   147.44251   147.44251     0.00000    -0.00000     0.00000
  Kinetic  2135.48282  2139.88027  2144.29597    -0.20809    -0.05579    -0.08122
  Fock        0.00000     0.00000     0.00000     0.00000     0.00000     0.00000
  -------------------------------------------------------------------------------------
  Total       0.03548     0.03548     0.03548     0.00000     0.00000     0.00000
  in kB       0.34313     0.34313     0.34313     0.00000     0.00000     0.00000
  external pressure =        0.34 kB  Pullay stress =        0.00 kB


 VOLUME and BASIS-vectors are now :
 -----------------------------------------------------------------------------
  energy-cutoff  :      500.00
  volume of cell :      165.65
      direct lattice vectors                 reciprocal lattice vectors
     5.492036969 -0.000000000  0.000000000     0.182081804 -0.000000000  0.000000000
     0.000000000  5.492036969  0.000000000     0.000000000  0.182081804  0.000000000
    -0.000000000 -0.000000000  5.492036969    -0.000000000 -0.000000000  0.182081804

  length of vectors
     5.492036969  5.492036969  5.492036969     0.182081804  0.182081804  0.182081804


 FORCES acting on ions
    electron-ion (+dipol)            ewald-force                    non-local-force                 convergence-correction
 -----------------------------------------------------------------------------------------------
   -.154E-13 -.272E-14 -.204E-13   0.213E-12 0.853E-13 0.142E-13   0.819E-23 0.149E-22 0.662E-23   0.966E-13 0.291E-13 -.115E-12
   -.153E-13 0.261E-12 0.234E-12   0.185E-12 0.568E-13 0.142E-13   0.102E-22 0.331E-22 -.199E-22   0.107E-12 0.102E-12 -.442E-13
   0.272E-12 -.253E-14 -.308E-11   0.199E-12 0.711E-13 0.142E-13   0.418E-22 0.663E-23 -.662E-23   0.496E-13 0.278E-13 -.461E-13
   0.272E-12 -.874E-13 -.367E-11   0.227E-12 0.114E-12 0.142E-13   0.190E-22 0.331E-22 -.830E-23   0.380E-13 0.922E-13 -.123E-12
   0.149E-12 0.658E-12 -.336E-12   0.395E-14 0.466E-13 0.872E-13   0.153E-18 -.376E-18 0.745E-19   0.136E-12 -.666E-13 0.315E-13
   0.248E-13 0.243E-12 0.330E-12   -.195E-12 -.110E-12 -.983E-13   0.172E-18 -.152E-18 0.508E-19   -.523E-14 0.600E-13 0.114E-13
   0.148E-12 0.145E-11 0.211E-12   0.447E-14 0.401E-13 0.898E-13   0.370E-18 -.146E-18 0.220E-18   0.145E-12 -.501E-13 -.516E-13
   0.236E-13 0.177E-11 0.367E-13   -.195E-12 -.116E-12 -.104E-12   0.152E-18 -.285E-18 -.440E-19   -.655E-14 0.754E-13 0.275E-13
   0.283E-12 0.418E-11 0.582E-11   -.188E-13 0.453E-13 0.898E-13   0.370E-18 -.349E-18 0.112E-18   0.458E-13 -.526E-13 0.184E-13
   0.159E-12 -.190E-11 0.318E-11   -.189E-12 -.111E-12 -.104E-12   0.433E-19 -.102E-18 -.112E-18   -.101E-12 0.804E-13 0.920E-13
   0.282E-12 0.261E-11 0.425E-11   -.183E-13 0.389E-13 0.845E-13   0.262E-18 -.200E-18 -.163E-18   0.518E-13 -.426E-13 0.240E-13
   0.158E-12 0.164E-11 -.368E-12   -.189E-12 -.118E-12 -.101E-12   0.606E-18 -.712E-19 -.305E-19   -.105E-12 0.885E-13 0.840E-14
 -----------------------------------------------------------------------------------------------
   0.174E-11 0.108E-10 0.659E-11   0.276E-13 0.431E-13 0.168E-14   0.213E-17 -.168E-17 0.108E-18   0.452E-12 0.343E-12 -.167E-12
 
 
 POSITION                                       TOTAL-FORCE (eV/Angst)
 -----------------------------------------------------------------------------------
     -0.00000     -0.00000     -0.00000         0.000000      0.000000     -0.000000
      0.00000      2.74602      2.74602         0.000000     -0.000000      0.000000
      2.74602     -0.00000      2.74602         0.000000     -0.000000      0.000000
      2.74602      2.74602      0.00000        -0.000000     -0.000000      0.000000
      1.37301      4.11903      1.37301        -0.000000      0.000000      0.000000
      1.37301      4.11903      4.11903        -0.000000      0.000000     -0.000000
      1.37301      1.37301      4.11903        -0.000000     -0.000000      0.000000
      1.37301      1.37301      1.37301        -0.000000      0.000000     -0.000000
      4.11903      4.11903      4.11903         0.000000      0.000000      0.000000
      4.11903      4.11903      1.37301        -0.000000      0.000000     -0.000000
      4.11903      1.37301      1.37301         0.000000      0.000000      0.000000
      4.11903      1.37301      4.11903        -0.000000     -0.000000     -0.000000
 -----------------------------------------------------------------------------------
    total drift:                                0.000000      0.000000      0.000000


--------------------------------------------------------------------------------------------------------



  FREE ENERGIE OF THE ION-ELECTRON SYSTEM (eV)
  ---------------------------------------------------
  free  energy   TOTEN  =       -89.20354846 eV

  energy  without entropy=      -89.20354846  energy(sigma->0) =      -89.20354846
 
 d Force = 0.0000000E+00[ 0.000E+00, 0.000E+00]  d Energy = 0.6675658E-02-0.668E-02
 d Force = 0.0000000E+00[ 0.000E+00, 0.000E+00]  d Ewald  = 0.2828956E+02-0.283E+02


--------------------------------------------------------------------------------------------------------


    POTLOK:  cpu time    0.04: real time    0.04


--------------------------------------------------------------------------------------------------------


 Steepest descent step on ions:
 trial-energy change:   -0.006676  1 .order   -0.006840   -0.014144    0.000463
  (g-gl).g = 0.141E-01      g.g   = 0.141E-01  gl.gl    = 0.000E+00
 g(Force)  = 0.160E-56   g(Stress)= 0.141E-01 ortho     = 0.000E+00
 gamma     =   0.00000
 trial     =   1.00000
 opt step  =   0.96606  (harmonic =   0.96828) maximal distance =0.00000000
 next E    =   -89.203556   (d E  =  -0.00668)


--------------------------------------------------------------------------------------------------------


  
 reached required accuracy - stopping structural energy minimisation
 writing wavefunctions
     LOOP+:  cpu time   58.36: real time   59.32
    4ORBIT:  cpu time    0.00: real time    0.00
 


 total charge     
 
# of ion     s       p       d       tot
----------------------------------------
  1        2.133   5.931   0.231   8.295
  2        2.133   5.931   0.231   8.295
  3        2.133   5.931   0.231   8.295
  4        2.133   5.931   0.231   8.295
  5        1.735   4.387   0.000   6.122
  6        1.735   4.387   0.000   6.122
  7        1.735   4.387   0.000   6.122
  8        1.735   4.387   0.000   6.122
  9        1.735   4.387   0.000   6.122
 10        1.735   4.387   0.000   6.122
 11        1.735   4.387   0.000   6.122
 12        1.735   4.387   0.000   6.122
------------------------------------------------
tot       22.411  58.817   0.923  82.152
 


 magnetization (x)
 
# of ion     s       p       d       tot
----------------------------------------
  1        0.000   0.000  -0.000   0.000
  2        0.000   0.000  -0.000   0.000
  3        0.000   0.000  -0.000   0.000
  4        0.000   0.000  -0.000   0.000
  5       -0.000  -0.000   0.000  -0.000
  6       -0.000  -0.000   0.000  -0.000
  7       -0.000  -0.000   0.000  -0.000
  8       -0.000  -0.000   0.000  -0.000
  9       -0.000  -0.000   0.000  -0.000
 10       -0.000  -0.000   0.000  -0.000
 11       -0.000  -0.000   0.000  -0.000
 12       -0.000  -0.000   0.000  -0.000
------------------------------------------------
tot       -0.000  -0.000  -0.000  -0.000
 

 total amount of memory used by VASP on root node    95312. kBytes
========================================================================

   base      :      30000. kBytes
   nonl-proj :      47140. kBytes
   fftplans  :        914. kBytes
   grid      :       6737. kBytes
   one-center:        415. kBytes
   wavefun   :      10106. kBytes
 
  
  
 General timing and accounting informations for this job:
 ========================================================
  
                  Total CPU time used (sec):      189.485
                            User time (sec):      181.719
                          System time (sec):        7.765
                         Elapsed time (sec):      192.385
  
                   Maximum memory used (kb):      121096.
                   Average memory used (kb):           0.
  
                          Minor page faults:       130736
                          Major page faults:            0
                 Voluntary context switches:        13500
