Fluorite (band)                         
           1
     5.492037    0.000000    0.000000
     0.000000    5.492037    0.000000
     0.000000    0.000000    5.492037
   Ca   F 
   4   8
Fluorite (band)                         
           1
     5.492037    0.000000    0.000000
     0.000000    5.492037    0.000000
     0.000000    0.000000    5.492037
   Ca   F 
   4   8
Direct configuration=     1
   0.00000000  0.00000000  0.00000000
   0.00000000  0.50000000  0.50000000
   0.50000000  0.00000000  0.50000000
   0.50000000  0.50000000  0.00000000
   0.25000000  0.75000000  0.25000000
   0.25000000  0.75000000  0.75000000
   0.25000000  0.25000000  0.75000000
   0.25000000  0.25000000  0.25000000
   0.75000000  0.75000000  0.75000000
   0.75000000  0.75000000  0.25000000
   0.75000000  0.25000000  0.25000000
   0.75000000  0.25000000  0.75000000
