   8   8   1   0
  0.2019748E+02  0.5446645E-09  0.5446645E-09  0.5446645E-09  0.5000000E-15
  1.000000000000000E-004
  CAR 
 ZnS (band)                              
     65.74935883    -12.18705675  301      2.16623312      1.00000000
    -12.187  0.0000E+00  0.0000E+00  0.0000E+00  0.0000E+00
    -11.927  0.0000E+00  0.0000E+00  0.0000E+00  0.0000E+00
    -11.667  0.0000E+00  0.0000E+00  0.0000E+00  0.0000E+00
    -11.408  0.0000E+00  0.0000E+00  0.0000E+00  0.0000E+00
    -11.148  0.8674E-02  0.8669E-02  0.2253E-02  0.2252E-02
    -10.888  0.6837E+00  0.6836E+00  0.1799E+00  0.1799E+00
    -10.628  0.3980E+00  0.3980E+00  0.2833E+00  0.2833E+00
    -10.369  0.1355E+01  0.1355E+01  0.6353E+00  0.6352E+00
    -10.109  0.8093E+01  0.8093E+01  0.2738E+01  0.2738E+01
     -9.849  0.4813E+01  0.4813E+01  0.3988E+01  0.3988E+01
     -9.589  0.4629E-01  0.4632E-01  0.4000E+01  0.4000E+01
     -9.329  0.0000E+00  0.0000E+00  0.4000E+01  0.4000E+01
     -9.070  0.0000E+00  0.0000E+00  0.4000E+01  0.4000E+01
     -8.810  0.0000E+00  0.0000E+00  0.4000E+01  0.4000E+01
     -8.550  0.0000E+00  0.0000E+00  0.4000E+01  0.4000E+01
     -8.290  0.0000E+00  0.0000E+00  0.4000E+01  0.4000E+01
     -8.030  0.0000E+00  0.0000E+00  0.4000E+01  0.4000E+01
     -7.771  0.0000E+00  0.0000E+00  0.4000E+01  0.4000E+01
     -7.511  0.0000E+00  0.0000E+00  0.4000E+01  0.4000E+01
     -7.251  0.0000E+00  0.0000E+00  0.4000E+01  0.4000E+01
     -6.991  0.0000E+00  0.0000E+00  0.4000E+01  0.4000E+01
     -6.732  0.0000E+00  0.0000E+00  0.4000E+01  0.4000E+01
     -6.472  0.0000E+00  0.0000E+00  0.4000E+01  0.4000E+01
     -6.212  0.0000E+00  0.0000E+00  0.4000E+01  0.4000E+01
     -5.952  0.0000E+00  0.0000E+00  0.4000E+01  0.4000E+01
     -5.692  0.0000E+00  0.0000E+00  0.4000E+01  0.4000E+01
     -5.433  0.0000E+00  0.0000E+00  0.4000E+01  0.4000E+01
     -5.173  0.0000E+00  0.0000E+00  0.4000E+01  0.4000E+01
     -4.913  0.0000E+00  0.0000E+00  0.4000E+01  0.4000E+01
     -4.653  0.1275E-15  0.1311E-15  0.4000E+01  0.4000E+01
     -4.393  0.5220E+00  0.5237E+00  0.4136E+01  0.4136E+01
     -4.134  0.3046E+02  0.3047E+02  0.1205E+02  0.1205E+02
     -3.874  0.2314E+02  0.2315E+02  0.1806E+02  0.1807E+02
     -3.614  0.2222E+02  0.2220E+02  0.2383E+02  0.2383E+02
     -3.354  0.6403E+00  0.6386E+00  0.2400E+02  0.2400E+02
     -3.094  0.1469E+01  0.1469E+01  0.2438E+02  0.2438E+02
     -2.835  0.1691E+01  0.1691E+01  0.2482E+02  0.2482E+02
     -2.575  0.2207E+01  0.2208E+01  0.2539E+02  0.2539E+02
     -2.315  0.3270E+01  0.3269E+01  0.2624E+02  0.2624E+02
     -2.055  0.1710E+01  0.1710E+01  0.2669E+02  0.2669E+02
     -1.796  0.3592E+01  0.3592E+01  0.2762E+02  0.2762E+02
     -1.536  0.1430E+00  0.1430E+00  0.2766E+02  0.2766E+02
     -1.276  0.9879E-01  0.9879E-01  0.2768E+02  0.2768E+02
     -1.016  0.3123E+00  0.3123E+00  0.2777E+02  0.2777E+02
     -0.756  0.4028E+00  0.4028E+00  0.2787E+02  0.2787E+02
     -0.497  0.2736E+01  0.2736E+01  0.2858E+02  0.2858E+02
     -0.237  0.4541E+01  0.4541E+01  0.2976E+02  0.2976E+02
      0.023  0.3377E+01  0.3377E+01  0.3064E+02  0.3064E+02
      0.283  0.2162E+01  0.2162E+01  0.3120E+02  0.3120E+02
      0.543  0.1915E+01  0.1915E+01  0.3170E+02  0.3170E+02
      0.802  0.3585E+01  0.3585E+01  0.3263E+02  0.3263E+02
      1.062  0.7466E+01  0.7465E+01  0.3457E+02  0.3457E+02
      1.322  0.2988E+01  0.2988E+01  0.3534E+02  0.3534E+02
      1.582  0.7717E+00  0.7717E+00  0.3554E+02  0.3554E+02
      1.841  0.1096E+01  0.1096E+01  0.3583E+02  0.3583E+02
      2.101  0.6563E+00  0.6564E+00  0.3600E+02  0.3600E+02
      2.361  0.0000E+00  0.0000E+00  0.3600E+02  0.3600E+02
      2.621  0.0000E+00  0.0000E+00  0.3600E+02  0.3600E+02
      2.881  0.0000E+00  0.0000E+00  0.3600E+02  0.3600E+02
      3.140  0.0000E+00  0.0000E+00  0.3600E+02  0.3600E+02
      3.400  0.0000E+00  0.0000E+00  0.3600E+02  0.3600E+02
      3.660  0.2081E-12  0.2125E-12  0.3600E+02  0.3600E+02
      3.920  0.6600E-01  0.6614E-01  0.3602E+02  0.3602E+02
      4.180  0.1920E+00  0.1919E+00  0.3607E+02  0.3607E+02
      4.439  0.1204E+00  0.1204E+00  0.3610E+02  0.3610E+02
      4.699  0.1133E+00  0.1133E+00  0.3613E+02  0.3613E+02
      4.959  0.1207E+00  0.1207E+00  0.3616E+02  0.3616E+02
      5.219  0.9594E+00  0.9600E+00  0.3641E+02  0.3641E+02
      5.479  0.2160E+01  0.2160E+01  0.3697E+02  0.3697E+02
      5.738  0.1611E+01  0.1611E+01  0.3739E+02  0.3739E+02
      5.998  0.2146E+01  0.2147E+01  0.3795E+02  0.3795E+02
      6.258  0.2942E+01  0.2942E+01  0.3871E+02  0.3871E+02
      6.518  0.2425E+01  0.2425E+01  0.3934E+02  0.3934E+02
      6.777  0.4073E+01  0.4073E+01  0.4040E+02  0.4040E+02
      7.037  0.6612E+00  0.6612E+00  0.4057E+02  0.4057E+02
      7.297  0.4346E+00  0.4344E+00  0.4068E+02  0.4068E+02
      7.557  0.2683E+00  0.2683E+00  0.4075E+02  0.4075E+02
      7.817  0.3199E+00  0.3200E+00  0.4084E+02  0.4084E+02
      8.076  0.2309E+01  0.2310E+01  0.4144E+02  0.4144E+02
      8.336  0.4414E+01  0.4414E+01  0.4258E+02  0.4258E+02
      8.596  0.4207E+01  0.4209E+01  0.4368E+02  0.4368E+02
      8.856  0.3308E+01  0.3303E+01  0.4453E+02  0.4453E+02
      9.116  0.3840E+01  0.3836E+01  0.4553E+02  0.4553E+02
      9.375  0.3131E+01  0.3175E+01  0.4635E+02  0.4636E+02
      9.635  0.2766E+01  0.2676E+01  0.4706E+02  0.4705E+02
      9.895  0.1537E+01  0.1586E+01  0.4746E+02  0.4746E+02
     10.155  0.3684E+00  0.3698E+00  0.4756E+02  0.4756E+02
     10.415  0.1360E+00  0.1361E+00  0.4759E+02  0.4759E+02
     10.674  0.1333E+00  0.1307E+00  0.4763E+02  0.4763E+02
     10.934  0.1196E+00  0.1251E+00  0.4766E+02  0.4766E+02
     11.194  0.1265E+00  0.1259E+00  0.4769E+02  0.4769E+02
     11.454  0.1167E+00  0.1087E+00  0.4772E+02  0.4772E+02
     11.713  0.1280E+00  0.1312E+00  0.4776E+02  0.4776E+02
     11.973  0.1239E+00  0.1304E+00  0.4779E+02  0.4779E+02
     12.233  0.1586E+00  0.1547E+00  0.4783E+02  0.4783E+02
     12.493  0.1785E+00  0.1931E+00  0.4788E+02  0.4788E+02
     12.753  0.4187E+00  0.3948E+00  0.4798E+02  0.4798E+02
     13.012  0.5499E-01  0.5615E-01  0.4800E+02  0.4800E+02
     13.272  0.3823E-02  0.4081E-05  0.4800E+02  0.4800E+02
     13.532  0.0000E+00  0.1185E-01  0.4800E+02  0.4800E+02
     13.792  0.0000E+00  0.9809E-03  0.4800E+02  0.4800E+02
     14.052  0.0000E+00  0.0000E+00  0.4800E+02  0.4800E+02
     14.311  0.0000E+00  0.0000E+00  0.4800E+02  0.4800E+02
     14.571  0.0000E+00  0.0000E+00  0.4800E+02  0.4800E+02
     14.831  0.0000E+00  0.0000E+00  0.4800E+02  0.4800E+02
     15.091  0.0000E+00  0.0000E+00  0.4800E+02  0.4800E+02
     15.350  0.0000E+00  0.0000E+00  0.4800E+02  0.4800E+02
     15.610  0.0000E+00  0.0000E+00  0.4800E+02  0.4800E+02
     15.870  0.0000E+00  0.0000E+00  0.4800E+02  0.4800E+02
     16.130  0.0000E+00  0.0000E+00  0.4800E+02  0.4800E+02
     16.390  0.0000E+00  0.0000E+00  0.4800E+02  0.4800E+02
     16.649  0.0000E+00  0.0000E+00  0.4800E+02  0.4800E+02
     16.909  0.0000E+00  0.0000E+00  0.4800E+02  0.4800E+02
     17.169  0.0000E+00  0.0000E+00  0.4800E+02  0.4800E+02
     17.429  0.0000E+00  0.0000E+00  0.4800E+02  0.4800E+02
     17.689  0.0000E+00  0.0000E+00  0.4800E+02  0.4800E+02
     17.948  0.0000E+00  0.0000E+00  0.4800E+02  0.4800E+02
     18.208  0.0000E+00  0.0000E+00  0.4800E+02  0.4800E+02
     18.468  0.0000E+00  0.0000E+00  0.4800E+02  0.4800E+02
     18.728  0.0000E+00  0.0000E+00  0.4800E+02  0.4800E+02
     18.988  0.0000E+00  0.0000E+00  0.4800E+02  0.4800E+02
     19.247  0.0000E+00  0.0000E+00  0.4800E+02  0.4800E+02
     19.507  0.0000E+00  0.0000E+00  0.4800E+02  0.4800E+02
     19.767  0.0000E+00  0.0000E+00  0.4800E+02  0.4800E+02
     20.027  0.0000E+00  0.0000E+00  0.4800E+02  0.4800E+02
     20.286  0.0000E+00  0.0000E+00  0.4800E+02  0.4800E+02
     20.546  0.0000E+00  0.0000E+00  0.4800E+02  0.4800E+02
     20.806  0.0000E+00  0.0000E+00  0.4800E+02  0.4800E+02
     21.066  0.0000E+00  0.0000E+00  0.4800E+02  0.4800E+02
     21.326  0.0000E+00  0.0000E+00  0.4800E+02  0.4800E+02
     21.585  0.0000E+00  0.0000E+00  0.4800E+02  0.4800E+02
     21.845  0.0000E+00  0.0000E+00  0.4800E+02  0.4800E+02
     22.105  0.0000E+00  0.0000E+00  0.4800E+02  0.4800E+02
     22.365  0.0000E+00  0.0000E+00  0.4800E+02  0.4800E+02
     22.625  0.0000E+00  0.0000E+00  0.4800E+02  0.4800E+02
     22.884  0.0000E+00  0.0000E+00  0.4800E+02  0.4800E+02
     23.144  0.0000E+00  0.0000E+00  0.4800E+02  0.4800E+02
     23.404  0.0000E+00  0.0000E+00  0.4800E+02  0.4800E+02
     23.664  0.0000E+00  0.0000E+00  0.4800E+02  0.4800E+02
     23.923  0.0000E+00  0.0000E+00  0.4800E+02  0.4800E+02
     24.183  0.0000E+00  0.0000E+00  0.4800E+02  0.4800E+02
     24.443  0.0000E+00  0.0000E+00  0.4800E+02  0.4800E+02
     24.703  0.0000E+00  0.0000E+00  0.4800E+02  0.4800E+02
     24.963  0.0000E+00  0.0000E+00  0.4800E+02  0.4800E+02
     25.222  0.0000E+00  0.0000E+00  0.4800E+02  0.4800E+02
     25.482  0.0000E+00  0.0000E+00  0.4800E+02  0.4800E+02
     25.742  0.0000E+00  0.0000E+00  0.4800E+02  0.4800E+02
     26.002  0.0000E+00  0.0000E+00  0.4800E+02  0.4800E+02
     26.262  0.0000E+00  0.0000E+00  0.4800E+02  0.4800E+02
     26.521  0.0000E+00  0.0000E+00  0.4800E+02  0.4800E+02
     26.781  0.0000E+00  0.0000E+00  0.4800E+02  0.4800E+02
     27.041  0.0000E+00  0.0000E+00  0.4800E+02  0.4800E+02
     27.301  0.0000E+00  0.0000E+00  0.4800E+02  0.4800E+02
     27.561  0.0000E+00  0.0000E+00  0.4800E+02  0.4800E+02
     27.820  0.0000E+00  0.0000E+00  0.4800E+02  0.4800E+02
     28.080  0.0000E+00  0.0000E+00  0.4800E+02  0.4800E+02
     28.340  0.0000E+00  0.0000E+00  0.4800E+02  0.4800E+02
     28.600  0.0000E+00  0.0000E+00  0.4800E+02  0.4800E+02
     28.859  0.0000E+00  0.0000E+00  0.4800E+02  0.4800E+02
     29.119  0.0000E+00  0.0000E+00  0.4800E+02  0.4800E+02
     29.379  0.0000E+00  0.0000E+00  0.4800E+02  0.4800E+02
     29.639  0.0000E+00  0.0000E+00  0.4800E+02  0.4800E+02
     29.899  0.0000E+00  0.0000E+00  0.4800E+02  0.4800E+02
     30.158  0.0000E+00  0.0000E+00  0.4800E+02  0.4800E+02
     30.418  0.0000E+00  0.0000E+00  0.4800E+02  0.4800E+02
     30.678  0.0000E+00  0.0000E+00  0.4800E+02  0.4800E+02
     30.938  0.0000E+00  0.0000E+00  0.4800E+02  0.4800E+02
     31.198  0.0000E+00  0.0000E+00  0.4800E+02  0.4800E+02
     31.457  0.0000E+00  0.0000E+00  0.4800E+02  0.4800E+02
     31.717  0.0000E+00  0.0000E+00  0.4800E+02  0.4800E+02
     31.977  0.0000E+00  0.0000E+00  0.4800E+02  0.4800E+02
     32.237  0.0000E+00  0.0000E+00  0.4800E+02  0.4800E+02
     32.496  0.0000E+00  0.0000E+00  0.4800E+02  0.4800E+02
     32.756  0.0000E+00  0.0000E+00  0.4800E+02  0.4800E+02
     33.016  0.0000E+00  0.0000E+00  0.4800E+02  0.4800E+02
     33.276  0.0000E+00  0.0000E+00  0.4800E+02  0.4800E+02
     33.536  0.0000E+00  0.0000E+00  0.4800E+02  0.4800E+02
     33.795  0.0000E+00  0.0000E+00  0.4800E+02  0.4800E+02
     34.055  0.0000E+00  0.0000E+00  0.4800E+02  0.4800E+02
     34.315  0.0000E+00  0.0000E+00  0.4800E+02  0.4800E+02
     34.575  0.0000E+00  0.0000E+00  0.4800E+02  0.4800E+02
     34.835  0.0000E+00  0.0000E+00  0.4800E+02  0.4800E+02
     35.094  0.0000E+00  0.0000E+00  0.4800E+02  0.4800E+02
     35.354  0.0000E+00  0.0000E+00  0.4800E+02  0.4800E+02
     35.614  0.0000E+00  0.0000E+00  0.4800E+02  0.4800E+02
     35.874  0.0000E+00  0.0000E+00  0.4800E+02  0.4800E+02
     36.134  0.0000E+00  0.0000E+00  0.4800E+02  0.4800E+02
     36.393  0.0000E+00  0.0000E+00  0.4800E+02  0.4800E+02
     36.653  0.0000E+00  0.0000E+00  0.4800E+02  0.4800E+02
     36.913  0.0000E+00  0.0000E+00  0.4800E+02  0.4800E+02
     37.173  0.0000E+00  0.0000E+00  0.4800E+02  0.4800E+02
     37.432  0.0000E+00  0.0000E+00  0.4800E+02  0.4800E+02
     37.692  0.0000E+00  0.0000E+00  0.4800E+02  0.4800E+02
     37.952  0.0000E+00  0.0000E+00  0.4800E+02  0.4800E+02
     38.212  0.0000E+00  0.0000E+00  0.4800E+02  0.4800E+02
     38.472  0.0000E+00  0.0000E+00  0.4800E+02  0.4800E+02
     38.731  0.0000E+00  0.0000E+00  0.4800E+02  0.4800E+02
     38.991  0.0000E+00  0.0000E+00  0.4800E+02  0.4800E+02
     39.251  0.0000E+00  0.0000E+00  0.4800E+02  0.4800E+02
     39.511  0.0000E+00  0.0000E+00  0.4800E+02  0.4800E+02
     39.771  0.0000E+00  0.0000E+00  0.4800E+02  0.4800E+02
     40.030  0.0000E+00  0.0000E+00  0.4800E+02  0.4800E+02
     40.290  0.0000E+00  0.0000E+00  0.4800E+02  0.4800E+02
     40.550  0.0000E+00  0.0000E+00  0.4800E+02  0.4800E+02
     40.810  0.0000E+00  0.0000E+00  0.4800E+02  0.4800E+02
     41.069  0.0000E+00  0.0000E+00  0.4800E+02  0.4800E+02
     41.329  0.0000E+00  0.0000E+00  0.4800E+02  0.4800E+02
     41.589  0.0000E+00  0.0000E+00  0.4800E+02  0.4800E+02
     41.849  0.0000E+00  0.0000E+00  0.4800E+02  0.4800E+02
     42.109  0.0000E+00  0.0000E+00  0.4800E+02  0.4800E+02
     42.368  0.0000E+00  0.0000E+00  0.4800E+02  0.4800E+02
     42.628  0.0000E+00  0.0000E+00  0.4800E+02  0.4800E+02
     42.888  0.0000E+00  0.0000E+00  0.4800E+02  0.4800E+02
     43.148  0.0000E+00  0.0000E+00  0.4800E+02  0.4800E+02
     43.408  0.0000E+00  0.0000E+00  0.4800E+02  0.4800E+02
     43.667  0.0000E+00  0.0000E+00  0.4800E+02  0.4800E+02
     43.927  0.0000E+00  0.0000E+00  0.4800E+02  0.4800E+02
     44.187  0.0000E+00  0.0000E+00  0.4800E+02  0.4800E+02
     44.447  0.0000E+00  0.0000E+00  0.4800E+02  0.4800E+02
     44.707  0.0000E+00  0.0000E+00  0.4800E+02  0.4800E+02
     44.966  0.0000E+00  0.0000E+00  0.4800E+02  0.4800E+02
     45.226  0.0000E+00  0.0000E+00  0.4800E+02  0.4800E+02
     45.486  0.0000E+00  0.0000E+00  0.4800E+02  0.4800E+02
     45.746  0.0000E+00  0.0000E+00  0.4800E+02  0.4800E+02
     46.005  0.0000E+00  0.0000E+00  0.4800E+02  0.4800E+02
     46.265  0.0000E+00  0.0000E+00  0.4800E+02  0.4800E+02
     46.525  0.0000E+00  0.0000E+00  0.4800E+02  0.4800E+02
     46.785  0.0000E+00  0.0000E+00  0.4800E+02  0.4800E+02
     47.045  0.0000E+00  0.0000E+00  0.4800E+02  0.4800E+02
     47.304  0.0000E+00  0.0000E+00  0.4800E+02  0.4800E+02
     47.564  0.0000E+00  0.0000E+00  0.4800E+02  0.4800E+02
     47.824  0.0000E+00  0.0000E+00  0.4800E+02  0.4800E+02
     48.084  0.0000E+00  0.0000E+00  0.4800E+02  0.4800E+02
     48.344  0.0000E+00  0.0000E+00  0.4800E+02  0.4800E+02
     48.603  0.0000E+00  0.0000E+00  0.4800E+02  0.4800E+02
     48.863  0.0000E+00  0.0000E+00  0.4800E+02  0.4800E+02
     49.123  0.0000E+00  0.0000E+00  0.4800E+02  0.4800E+02
     49.383  0.0000E+00  0.0000E+00  0.4800E+02  0.4800E+02
     49.642  0.0000E+00  0.0000E+00  0.4800E+02  0.4800E+02
     49.902  0.0000E+00  0.0000E+00  0.4800E+02  0.4800E+02
     50.162  0.0000E+00  0.0000E+00  0.4800E+02  0.4800E+02
     50.422  0.0000E+00  0.0000E+00  0.4800E+02  0.4800E+02
     50.682  0.0000E+00  0.0000E+00  0.4800E+02  0.4800E+02
     50.941  0.0000E+00  0.0000E+00  0.4800E+02  0.4800E+02
     51.201  0.0000E+00  0.0000E+00  0.4800E+02  0.4800E+02
     51.461  0.0000E+00  0.0000E+00  0.4800E+02  0.4800E+02
     51.721  0.0000E+00  0.0000E+00  0.4800E+02  0.4800E+02
     51.981  0.0000E+00  0.0000E+00  0.4800E+02  0.4800E+02
     52.240  0.0000E+00  0.0000E+00  0.4800E+02  0.4800E+02
     52.500  0.0000E+00  0.0000E+00  0.4800E+02  0.4800E+02
     52.760  0.0000E+00  0.0000E+00  0.4800E+02  0.4800E+02
     53.020  0.0000E+00  0.0000E+00  0.4800E+02  0.4800E+02
     53.280  0.0000E+00  0.0000E+00  0.4800E+02  0.4800E+02
     53.539  0.0000E+00  0.0000E+00  0.4800E+02  0.4800E+02
     53.799  0.0000E+00  0.0000E+00  0.4800E+02  0.4800E+02
     54.059  0.0000E+00  0.0000E+00  0.4800E+02  0.4800E+02
     54.319  0.0000E+00  0.0000E+00  0.4800E+02  0.4800E+02
     54.578  0.0000E+00  0.0000E+00  0.4800E+02  0.4800E+02
     54.838  0.0000E+00  0.0000E+00  0.4800E+02  0.4800E+02
     55.098  0.0000E+00  0.0000E+00  0.4800E+02  0.4800E+02
     55.358  0.0000E+00  0.0000E+00  0.4800E+02  0.4800E+02
     55.618  0.0000E+00  0.0000E+00  0.4800E+02  0.4800E+02
     55.877  0.0000E+00  0.0000E+00  0.4800E+02  0.4800E+02
     56.137  0.0000E+00  0.0000E+00  0.4800E+02  0.4800E+02
     56.397  0.0000E+00  0.0000E+00  0.4800E+02  0.4800E+02
     56.657  0.0000E+00  0.0000E+00  0.4800E+02  0.4800E+02
     56.917  0.0000E+00  0.0000E+00  0.4800E+02  0.4800E+02
     57.176  0.0000E+00  0.0000E+00  0.4800E+02  0.4800E+02
     57.436  0.0000E+00  0.0000E+00  0.4800E+02  0.4800E+02
     57.696  0.0000E+00  0.0000E+00  0.4800E+02  0.4800E+02
     57.956  0.0000E+00  0.0000E+00  0.4800E+02  0.4800E+02
     58.216  0.0000E+00  0.0000E+00  0.4800E+02  0.4800E+02
     58.475  0.0000E+00  0.0000E+00  0.4800E+02  0.4800E+02
     58.735  0.0000E+00  0.0000E+00  0.4800E+02  0.4800E+02
     58.995  0.0000E+00  0.0000E+00  0.4800E+02  0.4800E+02
     59.255  0.0000E+00  0.0000E+00  0.4800E+02  0.4800E+02
     59.514  0.0000E+00  0.0000E+00  0.4800E+02  0.4800E+02
     59.774  0.0000E+00  0.0000E+00  0.4800E+02  0.4800E+02
     60.034  0.0000E+00  0.0000E+00  0.4800E+02  0.4800E+02
     60.294  0.0000E+00  0.0000E+00  0.4800E+02  0.4800E+02
     60.554  0.0000E+00  0.0000E+00  0.4800E+02  0.4800E+02
     60.813  0.0000E+00  0.0000E+00  0.4800E+02  0.4800E+02
     61.073  0.0000E+00  0.0000E+00  0.4800E+02  0.4800E+02
     61.333  0.0000E+00  0.0000E+00  0.4800E+02  0.4800E+02
     61.593  0.0000E+00  0.0000E+00  0.4800E+02  0.4800E+02
     61.853  0.0000E+00  0.0000E+00  0.4800E+02  0.4800E+02
     62.112  0.0000E+00  0.0000E+00  0.4800E+02  0.4800E+02
     62.372  0.0000E+00  0.0000E+00  0.4800E+02  0.4800E+02
     62.632  0.0000E+00  0.0000E+00  0.4800E+02  0.4800E+02
     62.892  0.0000E+00  0.0000E+00  0.4800E+02  0.4800E+02
     63.151  0.0000E+00  0.0000E+00  0.4800E+02  0.4800E+02
     63.411  0.0000E+00  0.0000E+00  0.4800E+02  0.4800E+02
     63.671  0.0000E+00  0.0000E+00  0.4800E+02  0.4800E+02
     63.931  0.0000E+00  0.0000E+00  0.4800E+02  0.4800E+02
     64.191  0.0000E+00  0.0000E+00  0.4800E+02  0.4800E+02
     64.450  0.0000E+00  0.0000E+00  0.4800E+02  0.4800E+02
     64.710  0.0000E+00  0.0000E+00  0.4800E+02  0.4800E+02
     64.970  0.0000E+00  0.0000E+00  0.4800E+02  0.4800E+02
     65.230  0.0000E+00  0.0000E+00  0.4800E+02  0.4800E+02
     65.490  0.0000E+00  0.0000E+00  0.4800E+02  0.4800E+02
     65.749  0.0000E+00  0.0000E+00  0.4800E+02  0.4800E+02
     65.74935883    -12.18705675  301      2.16623312      1.00000000
    -12.187  0.0000E+00  0.0000E+00  0.0000E+00  0.0000E+00  0.0000E+00  0.0000E+00  0.0000E+00  0.0000E+00  0.0000E+00  0.0000E+00  0.0000E+00  0.0000E+00  0.0000E+00  0.0000E+00  0.0000E+00  0.0000E+00  0.0000E+00  0.0000E+00
    -11.927  0.0000E+00  0.0000E+00  0.0000E+00  0.0000E+00  0.0000E+00  0.0000E+00  0.0000E+00  0.0000E+00  0.0000E+00  0.0000E+00  0.0000E+00  0.0000E+00  0.0000E+00  0.0000E+00  0.0000E+00  0.0000E+00  0.0000E+00  0.0000E+00
    -11.667  0.0000E+00  0.0000E+00  0.0000E+00  0.0000E+00  0.0000E+00  0.0000E+00  0.0000E+00  0.0000E+00  0.0000E+00  0.0000E+00  0.0000E+00  0.0000E+00  0.0000E+00  0.0000E+00  0.0000E+00  0.0000E+00  0.0000E+00  0.0000E+00
    -11.408  0.0000E+00  0.0000E+00  0.0000E+00  0.0000E+00  0.0000E+00  0.0000E+00  0.0000E+00  0.0000E+00  0.0000E+00  0.0000E+00  0.0000E+00  0.0000E+00  0.0000E+00  0.0000E+00  0.0000E+00  0.0000E+00  0.0000E+00  0.0000E+00
    -11.148  0.2112E-03  0.2110E-03  0.5390E-07  0.5386E-07  0.1714E-06  0.1712E-06  0.1201E-06  0.1200E-06  0.1459E-06  0.1458E-06  0.1024E-06  0.1023E-06  0.6878E-11  0.6862E-11  0.4647E-07  0.4644E-07  0.5031E-11  0.5020E-11
    -10.888  0.1595E-01  0.1595E-01  0.4925E-04  0.4925E-04  0.1475E-03  0.1475E-03  0.1034E-03  0.1034E-03  0.1318E-03  0.1318E-03  0.9317E-04  0.9316E-04  0.3707E-07  0.3706E-07  0.4747E-04  0.4746E-04  0.2667E-07  0.2669E-07
    -10.628  0.7534E-02  0.7534E-02  0.1526E-03  0.1526E-03  0.3946E-03  0.3945E-03  0.2776E-03  0.2776E-03  0.3901E-03  0.3901E-03  0.2804E-03  0.2804E-03  0.2378E-06  0.2378E-06  0.1768E-03  0.1768E-03  0.1653E-06  0.1655E-06
    -10.369  0.1659E-01  0.1659E-01  0.1298E-02  0.1298E-02  0.1994E-02  0.1994E-02  0.2497E-02  0.2497E-02  0.2389E-02  0.2388E-02  0.2968E-02  0.2967E-02  0.1301E-05  0.1301E-05  0.1827E-02  0.1827E-02  0.2606E-05  0.2605E-05
    -10.109  0.6263E-01  0.6263E-01  0.1351E-01  0.1351E-01  0.1601E-01  0.1601E-01  0.1586E-01  0.1585E-01  0.2138E-01  0.2138E-01  0.2090E-01  0.2090E-01  0.1146E-04  0.1146E-04  0.2060E-01  0.2060E-01  0.1631E-04  0.1631E-04
     -9.849  0.1284E-01  0.1284E-01  0.1287E-01  0.1287E-01  0.1099E-01  0.1099E-01  0.1087E-01  0.1087E-01  0.1559E-01  0.1560E-01  0.1555E-01  0.1555E-01  0.1004E-04  0.1004E-04  0.1897E-01  0.1897E-01  0.8913E-05  0.8915E-05
     -9.589  0.7533E-05  0.7539E-05  0.1742E-03  0.1743E-03  0.8921E-04  0.8927E-04  0.1096E-03  0.1097E-03  0.1285E-03  0.1286E-03  0.1580E-03  0.1581E-03  0.1390E-07  0.1392E-07  0.2517E-03  0.2519E-03  0.1516E-07  0.1517E-07
     -9.329  0.0000E+00  0.0000E+00  0.0000E+00  0.0000E+00  0.0000E+00  0.0000E+00  0.0000E+00  0.0000E+00  0.0000E+00  0.0000E+00  0.0000E+00  0.0000E+00  0.0000E+00  0.0000E+00  0.0000E+00  0.0000E+00  0.0000E+00  0.0000E+00
     -9.070  0.0000E+00  0.0000E+00  0.0000E+00  0.0000E+00  0.0000E+00  0.0000E+00  0.0000E+00  0.0000E+00  0.0000E+00  0.0000E+00  0.0000E+00  0.0000E+00  0.0000E+00  0.0000E+00  0.0000E+00  0.0000E+00  0.0000E+00  0.0000E+00
     -8.810  0.0000E+00  0.0000E+00  0.0000E+00  0.0000E+00  0.0000E+00  0.0000E+00  0.0000E+00  0.0000E+00  0.0000E+00  0.0000E+00  0.0000E+00  0.0000E+00  0.0000E+00  0.0000E+00  0.0000E+00  0.0000E+00  0.0000E+00  0.0000E+00
     -8.550  0.0000E+00  0.0000E+00  0.0000E+00  0.0000E+00  0.0000E+00  0.0000E+00  0.0000E+00  0.0000E+00  0.0000E+00  0.0000E+00  0.0000E+00  0.0000E+00  0.0000E+00  0.0000E+00  0.0000E+00  0.0000E+00  0.0000E+00  0.0000E+00
     -8.290  0.0000E+00  0.0000E+00  0.0000E+00  0.0000E+00  0.0000E+00  0.0000E+00  0.0000E+00  0.0000E+00  0.0000E+00  0.0000E+00  0.0000E+00  0.0000E+00  0.0000E+00  0.0000E+00  0.0000E+00  0.0000E+00  0.0000E+00  0.0000E+00
     -8.030  0.0000E+00  0.0000E+00  0.0000E+00  0.0000E+00  0.0000E+00  0.0000E+00  0.0000E+00  0.0000E+00  0.0000E+00  0.0000E+00  0.0000E+00  0.0000E+00  0.0000E+00  0.0000E+00  0.0000E+00  0.0000E+00  0.0000E+00  0.0000E+00
     -7.771  0.0000E+00  0.0000E+00  0.0000E+00  0.0000E+00  0.0000E+00  0.0000E+00  0.0000E+00  0.0000E+00  0.0000E+00  0.0000E+00  0.0000E+00  0.0000E+00  0.0000E+00  0.0000E+00  0.0000E+00  0.0000E+00  0.0000E+00  0.0000E+00
     -7.511  0.0000E+00  0.0000E+00  0.0000E+00  0.0000E+00  0.0000E+00  0.0000E+00  0.0000E+00  0.0000E+00  0.0000E+00  0.0000E+00  0.0000E+00  0.0000E+00  0.0000E+00  0.0000E+00  0.0000E+00  0.0000E+00  0.0000E+00  0.0000E+00
     -7.251  0.0000E+00  0.0000E+00  0.0000E+00  0.0000E+00  0.0000E+00  0.0000E+00  0.0000E+00  0.0000E+00  0.0000E+00  0.0000E+00  0.0000E+00  0.0000E+00  0.0000E+00  0.0000E+00  0.0000E+00  0.0000E+00  0.0000E+00  0.0000E+00
     -6.991  0.0000E+00  0.0000E+00  0.0000E+00  0.0000E+00  0.0000E+00  0.0000E+00  0.0000E+00  0.0000E+00  0.0000E+00  0.0000E+00  0.0000E+00  0.0000E+00  0.0000E+00  0.0000E+00  0.0000E+00  0.0000E+00  0.0000E+00  0.0000E+00
     -6.732  0.0000E+00  0.0000E+00  0.0000E+00  0.0000E+00  0.0000E+00  0.0000E+00  0.0000E+00  0.0000E+00  0.0000E+00  0.0000E+00  0.0000E+00  0.0000E+00  0.0000E+00  0.0000E+00  0.0000E+00  0.0000E+00  0.0000E+00  0.0000E+00
     -6.472  0.0000E+00  0.0000E+00  0.0000E+00  0.0000E+00  0.0000E+00  0.0000E+00  0.0000E+00  0.0000E+00  0.0000E+00  0.0000E+00  0.0000E+00  0.0000E+00  0.0000E+00  0.0000E+00  0.0000E+00  0.0000E+00  0.0000E+00  0.0000E+00
     -6.212  0.0000E+00  0.0000E+00  0.0000E+00  0.0000E+00  0.0000E+00  0.0000E+00  0.0000E+00  0.0000E+00  0.0000E+00  0.0000E+00  0.0000E+00  0.0000E+00  0.0000E+00  0.0000E+00  0.0000E+00  0.0000E+00  0.0000E+00  0.0000E+00
     -5.952  0.0000E+00  0.0000E+00  0.0000E+00  0.0000E+00  0.0000E+00  0.0000E+00  0.0000E+00  0.0000E+00  0.0000E+00  0.0000E+00  0.0000E+00  0.0000E+00  0.0000E+00  0.0000E+00  0.0000E+00  0.0000E+00  0.0000E+00  0.0000E+00
     -5.692  0.0000E+00  0.0000E+00  0.0000E+00  0.0000E+00  0.0000E+00  0.0000E+00  0.0000E+00  0.0000E+00  0.0000E+00  0.0000E+00  0.0000E+00  0.0000E+00  0.0000E+00  0.0000E+00  0.0000E+00  0.0000E+00  0.0000E+00  0.0000E+00
     -5.433  0.0000E+00  0.0000E+00  0.0000E+00  0.0000E+00  0.0000E+00  0.0000E+00  0.0000E+00  0.0000E+00  0.0000E+00  0.0000E+00  0.0000E+00  0.0000E+00  0.0000E+00  0.0000E+00  0.0000E+00  0.0000E+00  0.0000E+00  0.0000E+00
     -5.173  0.0000E+00  0.0000E+00  0.0000E+00  0.0000E+00  0.0000E+00  0.0000E+00  0.0000E+00  0.0000E+00  0.0000E+00  0.0000E+00  0.0000E+00  0.0000E+00  0.0000E+00  0.0000E+00  0.0000E+00  0.0000E+00  0.0000E+00  0.0000E+00
     -4.913  0.0000E+00  0.0000E+00  0.0000E+00  0.0000E+00  0.0000E+00  0.0000E+00  0.0000E+00  0.0000E+00  0.0000E+00  0.0000E+00  0.0000E+00  0.0000E+00  0.0000E+00  0.0000E+00  0.0000E+00  0.0000E+00  0.0000E+00  0.0000E+00
     -4.653  0.8519E-18  0.8828E-18  0.5440E-20  0.5583E-20  0.9034E-20  0.9036E-20  0.6799E-20  0.6943E-20  0.5244E-17  0.5244E-17  0.3570E-17  0.3649E-17  0.7438E-17  0.7660E-17  0.2324E-17  0.2403E-17  0.6157E-17  0.6442E-17
     -4.393  0.2582E-02  0.2589E-02  0.4417E-04  0.4432E-04  0.5169E-04  0.5187E-04  0.4746E-04  0.4762E-04  0.2659E-01  0.2668E-01  0.2113E-01  0.2120E-01  0.2157E-01  0.2163E-01  0.1696E-01  0.1702E-01  0.1853E-01  0.1858E-01
     -4.134  0.5036E-01  0.5036E-01  0.5384E-02  0.5385E-02  0.7658E-02  0.7659E-02  0.7790E-02  0.7790E-02  0.1767E+01  0.1767E+01  0.1774E+01  0.1774E+01  0.6075E+00  0.6075E+00  0.1749E+01  0.1750E+01  0.6895E+00  0.6896E+00
     -3.874  0.4208E-01  0.4207E-01  0.4379E-02  0.4377E-02  0.3132E-02  0.3131E-02  0.3146E-02  0.3145E-02  0.9280E+00  0.9280E+00  0.9518E+00  0.9517E+00  0.1506E+01  0.1508E+01  0.6621E+00  0.6621E+00  0.1256E+01  0.1258E+01
     -3.614  0.3155E-01  0.3154E-01  0.2508E-02  0.2508E-02  0.2463E-02  0.2463E-02  0.2439E-02  0.2439E-02  0.6229E+00  0.6227E+00  0.5902E+00  0.5902E+00  0.1465E+01  0.1463E+01  0.9343E+00  0.9343E+00  0.1626E+01  0.1624E+01
     -3.354  0.1721E-02  0.1715E-02  0.2592E-03  0.2586E-03  0.6469E-04  0.6447E-04  0.9779E-04  0.9746E-04  0.3320E-01  0.3310E-01  0.3867E-01  0.3856E-01  0.1758E-02  0.1751E-02  0.7093E-01  0.7075E-01  0.2164E-02  0.2157E-02
     -3.094  0.6395E-01  0.6395E-01  0.5343E-02  0.5343E-02  0.5343E-02  0.5343E-02  0.5225E-02  0.5225E-02  0.3368E-02  0.3367E-02  0.3452E-02  0.3452E-02  0.2087E-02  0.2086E-02  0.3368E-02  0.3367E-02  0.9555E-03  0.9553E-03
     -2.835  0.7222E-01  0.7222E-01  0.5897E-02  0.5897E-02  0.5479E-02  0.5479E-02  0.5114E-02  0.5114E-02  0.9232E-02  0.9230E-02  0.9324E-02  0.9323E-02  0.6260E-02  0.6259E-02  0.8999E-02  0.8997E-02  0.5664E-02  0.5664E-02
     -2.575  0.1026E+00  0.1026E+00  0.6335E-02  0.6335E-02  0.4262E-02  0.4263E-02  0.4146E-02  0.4146E-02  0.1721E-01  0.1721E-01  0.1761E-01  0.1761E-01  0.1532E-01  0.1533E-01  0.1313E-01  0.1313E-01  0.2158E-01  0.2158E-01
     -2.315  0.1601E+00  0.1601E+00  0.7244E-02  0.7244E-02  0.3334E-02  0.3334E-02  0.3290E-02  0.3290E-02  0.3059E-01  0.3058E-01  0.3093E-01  0.3093E-01  0.4194E-01  0.4193E-01  0.1876E-01  0.1876E-01  0.4277E-01  0.4275E-01
     -2.055  0.7007E-01  0.7008E-01  0.8243E-02  0.8243E-02  0.1842E-02  0.1842E-02  0.1575E-02  0.1575E-02  0.3261E-01  0.3261E-01  0.3075E-01  0.3075E-01  0.8007E-02  0.8006E-02  0.1083E-01  0.1083E-01  0.3549E-02  0.3548E-02
     -1.796  0.1294E+00  0.1294E+00  0.2034E-01  0.2033E-01  0.5139E-02  0.5139E-02  0.4588E-02  0.4588E-02  0.6956E-01  0.6955E-01  0.7541E-01  0.7540E-01  0.3739E-02  0.3739E-02  0.2685E-01  0.2685E-01  0.2669E-02  0.2669E-02
     -1.536  0.4724E-02  0.4723E-02  0.7817E-03  0.7815E-03  0.2395E-03  0.2394E-03  0.2891E-03  0.2890E-03  0.2975E-02  0.2974E-02  0.2675E-02  0.2674E-02  0.7598E-04  0.7594E-04  0.1244E-02  0.1243E-02  0.5621E-04  0.5617E-04
     -1.276  0.3079E-02  0.3079E-02  0.5367E-03  0.5367E-03  0.1705E-03  0.1705E-03  0.2195E-03  0.2195E-03  0.2088E-02  0.2088E-02  0.1705E-02  0.1705E-02  0.3935E-04  0.3935E-04  0.8434E-03  0.8434E-03  0.2301E-04  0.2301E-04
     -1.016  0.3297E-02  0.3297E-02  0.1894E-02  0.1894E-02  0.2204E-02  0.2204E-02  0.2248E-02  0.2248E-02  0.2310E-02  0.2310E-02  0.1951E-02  0.1951E-02  0.9634E-03  0.9633E-03  0.1725E-02  0.1725E-02  0.2814E-02  0.2814E-02
     -0.756  0.3756E-02  0.3756E-02  0.2437E-02  0.2437E-02  0.3232E-02  0.3232E-02  0.2866E-02  0.2866E-02  0.2635E-02  0.2635E-02  0.2412E-02  0.2412E-02  0.7647E-03  0.7646E-03  0.2241E-02  0.2241E-02  0.2929E-02  0.2928E-02
     -0.497  0.1972E-01  0.1972E-01  0.1806E-01  0.1806E-01  0.2165E-01  0.2165E-01  0.2152E-01  0.2152E-01  0.6949E-02  0.6948E-02  0.6645E-02  0.6644E-02  0.6629E-02  0.6628E-02  0.2911E-01  0.2910E-01  0.1631E-01  0.1631E-01
     -0.237  0.2425E-01  0.2426E-01  0.3594E-01  0.3594E-01  0.3523E-01  0.3522E-01  0.3575E-01  0.3575E-01  0.1518E-01  0.1517E-01  0.1274E-01  0.1274E-01  0.8231E-02  0.8231E-02  0.4203E-01  0.4203E-01  0.1462E-01  0.1462E-01
      0.023  0.1425E-01  0.1426E-01  0.2750E-01  0.2751E-01  0.2651E-01  0.2651E-01  0.2608E-01  0.2608E-01  0.1589E-01  0.1589E-01  0.1460E-01  0.1460E-01  0.5155E-02  0.5155E-02  0.2346E-01  0.2346E-01  0.6846E-02  0.6846E-02
      0.283  0.1304E-01  0.1304E-01  0.1512E-01  0.1512E-01  0.1577E-01  0.1577E-01  0.1480E-01  0.1480E-01  0.1285E-01  0.1285E-01  0.1031E-01  0.1031E-01  0.5152E-02  0.5152E-02  0.1666E-01  0.1666E-01  0.5846E-02  0.5846E-02
      0.543  0.7433E-02  0.7433E-02  0.1195E-01  0.1195E-01  0.1416E-01  0.1416E-01  0.1396E-01  0.1396E-01  0.1201E-01  0.1201E-01  0.1190E-01  0.1190E-01  0.5043E-02  0.5043E-02  0.1265E-01  0.1265E-01  0.4077E-02  0.4077E-02
      0.802  0.7420E-02  0.7420E-02  0.1799E-01  0.1799E-01  0.2600E-01  0.2600E-01  0.2932E-01  0.2932E-01  0.2281E-01  0.2281E-01  0.2865E-01  0.2865E-01  0.1004E-01  0.1004E-01  0.1826E-01  0.1826E-01  0.6998E-02  0.6998E-02