    8    8    1    2
  0.2019748E+02  0.5446645E-09  0.5446645E-09  0.5446645E-09  0.5000000E-15
  1.000000000000000E-004
  CAR 
 ZnS (band)                              
   72  300   48
 
  0.0000000E+00  0.0000000E+00  0.0000000E+00  0.3333333E-02
   1      -11.089153    -11.089143
   2       -9.907766     -9.907754
   3       -9.907766     -9.907754
   4       -9.907766     -9.907754
   5       -4.364127     -4.364188
   6       -4.364127     -4.364188
   7       -4.364127     -4.364188
   8       -4.358740     -4.358814
   9       -4.358740     -4.358814
  10       -4.358740     -4.358814
  11       -4.034324     -4.034405
  12       -4.034324     -4.034405
  13       -4.034324     -4.034405
  14       -4.034324     -4.034405
  15       -4.034324     -4.034405
  16       -4.034324     -4.034405
  17       -3.886676     -3.886762
  18       -3.886676     -3.886762
  19       -3.815968     -3.816055
  20       -3.815968     -3.816055
  21       -3.815968     -3.816055
  22       -3.680881     -3.680971
  23       -3.680881     -3.680971
  24       -3.680881     -3.680971
  25       -2.576252     -2.576276
  26       -2.576252     -2.576276
  27       -2.576252     -2.576276
  28       -0.245518     -0.245500
  29       -0.245518     -0.245500
  30       -0.245518     -0.245500
  31       -0.245518     -0.245500
  32       -0.245518     -0.245500
  33       -0.245518     -0.245500
  34        1.889492      1.889511
  35        1.889492      1.889511
  36        1.889492      1.889511
  37        3.901130      3.901025
  38        5.349541      5.349514
  39        5.349541      5.349514
  40        5.349540      5.349514
  41        5.963546      5.963496
  42        5.963544      5.963495
  43        5.963543      5.963493
  44        8.301369      8.301347
  45        8.301369      8.301347
  46        8.301369      8.301347
  47       12.712929     12.709647
  48       12.750558     12.727049
 
  0.1020408E-01  0.0000000E+00  0.1020408E-01  0.3333333E-02
   1      -11.088644    -11.088634
   2       -9.908125     -9.908114
   3       -9.908125     -9.908114
   4       -9.907754     -9.907743
   5       -4.364016     -4.364077
   6       -4.364016     -4.364077
   7       -4.363851     -4.363913
   8       -4.358757     -4.358831
   9       -4.358660     -4.358734
  10       -4.358613     -4.358687
  11       -4.034519     -4.034600
  12       -4.034519     -4.034600
  13       -4.034428     -4.034508
  14       -4.034410     -4.034490
  15       -4.034410     -4.034490
  16       -4.034332     -4.034413
  17       -3.886710     -3.886796
  18       -3.886663     -3.886749
  19       -3.816050     -3.816137
  20       -3.816027     -3.816114
  21       -3.816027     -3.816114
  22       -3.681244     -3.681335
  23       -3.681244     -3.681335
  24       -3.680512     -3.680602
  25       -2.576267     -2.576291
  26       -2.574870     -2.574894
  27       -2.574870     -2.574894
  28       -0.248451     -0.248433
  29       -0.245630     -0.245612
  30       -0.245630     -0.245612
  31       -0.245593     -0.245575
  32       -0.245593     -0.245575
  33       -0.244800     -0.244781
  34        1.882501      1.882520
  35        1.888024      1.888044
  36        1.889201      1.889221
  37        3.907450      3.907346
  38        5.351613      5.351587
  39        5.351613      5.351587
  40        5.352667      5.352640
  41        5.965403      5.965352
  42        5.965402      5.965349
  43        5.966357      5.966306
  44        8.299793      8.299771
  45        8.302149      8.302127
  46        8.303558      8.303536
  47       12.716705     12.713399
  48       12.758508     12.752612
 
  0.2040816E-01  0.0000000E+00  0.2040816E-01  0.3333333E-02
   1      -11.087114    -11.087105
   2       -9.909202     -9.909191
   3       -9.909202     -9.909191
   4       -9.907721     -9.907710
   5       -4.363684     -4.363745
   6       -4.363684     -4.363745
   7       -4.363027     -4.363089
   8       -4.358813     -4.358887
   9       -4.358420     -4.358495
  10       -4.358237     -4.358311
  11       -4.035102     -4.035183
  12       -4.035102     -4.035183
  13       -4.034738     -4.034818
  14       -4.034664     -4.034744
  15       -4.034664     -4.034744
  16       -4.034352     -4.034433
  17       -3.886813     -3.886899
  18       -3.886625     -3.886711
  19       -3.816295     -3.816382
  20       -3.816204     -3.816290
  21       -3.816204     -3.816290
  22       -3.682326     -3.682416
  23       -3.682326     -3.682416
  24       -3.679406     -3.679497
  25       -2.576313     -2.576337
  26       -2.570740     -2.570764
  27       -2.570740     -2.570764
  28       -0.257199     -0.257180
  29       -0.246019     -0.246001
  30       -0.246019     -0.246001
  31       -0.245752     -0.245734
  32       -0.245752     -0.245734
  33       -0.242644     -0.242625
  34        1.861760      1.861779
  35        1.883604      1.883623
  36        1.888324      1.888343
  37        3.926125      3.926022
  38        5.357828      5.357801
  39        5.357827      5.357800
  40        5.361918      5.361893
  41        5.970964      5.970913
  42        5.970959      5.970912
  43        5.974865      5.974814
  44        8.295096      8.295074
  45        8.304486      8.304464
  46        8.310106      8.310084
  47       12.692640     12.686410
  48       12.710424     12.749786
 
  0.3061224E-01  0.0000000E+00  0.3061224E-01  0.3333333E-02
   1      -11.084558    -11.084548
   2       -9.910988     -9.910977
   3       -9.910988     -9.910977
   4       -9.907669     -9.907658
   5       -4.363128     -4.363189
   6       -4.363128     -4.363189
   7       -4.361663     -4.361724
   8       -4.358898     -4.358972
   9       -4.358021     -4.358095
  10       -4.357609     -4.357683
  11       -4.036072     -4.036153
  12       -4.036072     -4.036153
  13       -4.035253     -4.035333
  14       -4.035082     -4.035163
  15       -4.035082     -4.035163
  16       -4.034374     -4.034454
  17       -3.886982     -3.887067
  18       -3.886560     -3.886646
  19       -3.816701     -3.816787
  20       -3.816495     -3.816582
  21       -3.816495     -3.816582
  22       -3.684100     -3.684190
  23       -3.684100     -3.684190
  24       -3.677576     -3.677666
  25       -2.576395     -2.576419
  26       -2.563909     -2.563933
  27       -2.563909     -2.563933
  28       -0.271614     -0.271596
  29       -0.246753     -0.246735
  30       -0.246753     -0.246735
  31       -0.245877     -0.245859
  32       -0.245877     -0.245859
  33       -0.239054     -0.239036
  34        1.828173      1.828190
  35        1.876263      1.876282
  36        1.886860      1.886879
  37        3.956359      3.956257
  38        5.368177      5.368150
  39        5.368176      5.368150
  40        5.376931      5.376905
  41        5.980206      5.980153
  42        5.980204      5.980152
  43        5.989284      5.989239
  44        8.287400      8.287378
  45        8.308376      8.308354
  46        8.320982      8.320960
  47       12.669926     12.664773
  48       12.993637     12.677027
 
  0.4081633E-01  0.0000000E+00  0.4081633E-01  0.3333333E-02
   1      -11.080984    -11.080974
   2       -9.913481     -9.913470
   3       -9.913481     -9.913470
   4       -9.907601     -9.907590
   5       -4.362353     -4.362415
   6       -4.362353     -4.362415
   7       -4.359769     -4.359831
   8       -4.359010     -4.359084
   9       -4.357468     -4.357542
  10       -4.356736     -4.356810
  11       -4.037432     -4.037513
  12       -4.037432     -4.037513
  13       -4.035972     -4.036052
  14       -4.035662     -4.035742
  15       -4.035662     -4.035742
  16       -4.034378     -4.034459
  17       -3.887216     -3.887302
  18       -3.886469     -3.886555
  19       -3.817263     -3.817350
  20       -3.816900     -3.816987
  21       -3.816900     -3.816987
  22       -3.686530     -3.686620
  23       -3.686530     -3.686620
  24       -3.675037     -3.675127
  25       -2.576511     -2.576534
  26       -2.554483     -2.554507
  27       -2.554483     -2.554507
  28       -0.291451     -0.291433
  29       -0.247915     -0.247897
  30       -0.247915     -0.247897
  31       -0.245856     -0.245838
  32       -0.245856     -0.245838
  33       -0.234022     -0.234003
  34        1.782861      1.782876
  35        1.865993      1.866012
  36        1.884805      1.884824
  37        3.996968      3.996868
  38        5.382651      5.382624
  39        5.382650      5.382623
  40        5.397108      5.397082
  41        5.993083      5.993032
  42        5.993083      5.993032
  43        6.009988      6.009937
  44        8.276877      8.276855
  45        8.313813      8.313791
  46        8.336107      8.336085
  47       12.645836     12.626624
  48       12.744236     12.635872
 
  0.5102041E-01  0.0000000E+00  0.5102041E-01  0.3333333E-02
   1      -11.076392    -11.076383
   2       -9.916662     -9.916651
   3       -9.916662     -9.916651
   4       -9.907531     -9.907519
   5       -4.361356     -4.361417
   6       -4.361356     -4.361417
   7       -4.359144     -4.359218
   8       -4.357372     -4.357434
   9       -4.356753     -4.356827
  10       -4.355616     -4.355690
  11       -4.039177     -4.039258
  12       -4.039177     -4.039258
  13       -4.036896     -4.036977
  14       -4.036392     -4.036472
  15       -4.036392     -4.036472
  16       -4.034350     -4.034431
  17       -3.887514     -3.887599
  18       -3.886349     -3.886435
  19       -3.817983     -3.818070
  20       -3.817413     -3.817500
  21       -3.817413     -3.817500
  22       -3.689561     -3.689651
  23       -3.689561     -3.689651
  24       -3.671816     -3.671907
  25       -2.576691     -2.576715
  26       -2.542573     -2.542598
  27       -2.542573     -2.542598
  28       -0.316429     -0.316411
  29       -0.249548     -0.249530
  30       -0.249548     -0.249530
  31       -0.245547     -0.245529
  32       -0.245547     -0.245529
  33       -0.227583     -0.227565
  34        1.727234      1.727247
  35        1.852825      1.852844
  36        1.882166      1.882186
  37        4.046567      4.046469
  38        5.401231      5.401204
  39        5.401230      5.401204
  40        5.421664      5.421637
  41        6.009536      6.009485
  42        6.009536      6.009485
  43        6.037411      6.037361
  44        8.263773      8.263750
  45        8.320795      8.320772
  46        8.355383      8.355361
  47       12.572760     12.578075
  48       12.617057     12.615913
 
  0.6122449E-01  0.0000000E+00  0.6122449E-01  0.3333333E-02
   1      -11.070792    -11.070782
   2       -9.920515     -9.920504
   3       -9.920515     -9.920504
   4       -9.907463     -9.907452
   5       -4.360135     -4.360197
   6       -4.360135     -4.360197
   7       -4.359292     -4.359366
   8       -4.355881     -4.355955
   9       -4.354494     -4.354555
  10       -4.354255     -4.354329
  11       -4.041306     -4.041387
  12       -4.041306     -4.041387
  13       -4.038024     -4.038104
  14       -4.037264     -4.037344
  15       -4.037264     -4.037344
  16       -4.034261     -4.034342
  17       -3.887872     -3.887958
  18       -3.886200     -3.886286
  19       -3.818853     -3.818940
  20       -3.818029     -3.818116
  21       -3.818029     -3.818116
  22       -3.693135     -3.693225
  23       -3.693135     -3.693225
  24       -3.667944     -3.668034
  25       -2.576941     -2.576965
  26       -2.528323     -2.528347
  27       -2.528323     -2.528347
  28       -0.346144     -0.346127
  29       -0.251695     -0.251677
  30       -0.251695     -0.251677
  31       -0.244803     -0.244785
  32       -0.244803     -0.244785
  33       -0.219736     -0.219717
  34        1.662744      1.662755
  35        1.836762      1.836782
  36        1.878927      1.878947
  37        4.103714      4.103618
  38        5.423898      5.423871
  39        5.423897      5.423871
  40        5.449674      5.449646
  41        6.029494      6.029443
  42        6.029493      6.029442
  43        6.072085      6.072035
  44        8.248381      8.248358
  45        8.329307      8.329285
  46        8.378679      8.378657
  47       12.518175     12.508330
  48       12.536123     12.556009
 
  0.7142857E-01  0.0000000E+00  0.7142857E-01  0.3333333E-02
   1      -11.064194    -11.064184
   2       -9.925023     -9.925011
   3       -9.925023     -9.925011
   4       -9.907409     -9.907398
   5       -4.359447     -4.359521
   6       -4.358695     -4.358757
   7       -4.358695     -4.358757
   8       -4.354853     -4.354927
   9       -4.352660     -4.352734
  10       -4.351164     -4.351226
  11       -4.043818     -4.043899
  12       -4.043818     -4.043899
  13       -4.039352     -4.039432
  14       -4.038269     -4.038350
  15       -4.038269     -4.038350
  16       -4.034079     -4.034160
  17       -3.888290     -3.888375
  18       -3.886021     -3.886107
  19       -3.819869     -3.819956
  20       -3.818744     -3.818831
  21       -3.818744     -3.818831
  22       -3.697185     -3.697274
  23       -3.697185     -3.697274
  24       -3.663455     -3.663546
  25       -2.577279     -2.577302
  26       -2.511917     -2.511942
  27       -2.511917     -2.511942
  28       -0.380145     -0.380128
  29       -0.254404     -0.254386
  30       -0.254404     -0.254386
  31       -0.243483     -0.243465
  32       -0.243483     -0.243465
  33       -0.210491     -0.210472
  34        1.590769      1.590777
  35        1.817821      1.817841
  36        1.875074      1.875093
  37        4.167028      4.166933
  38        5.450623      5.450596
  39        5.450623      5.450596
  40        5.480156      5.480128
  41        6.052860      6.052809
  42        6.052860      6.052809
  43        6.114527      6.114477
  44        8.231036      8.231013
  45        8.339338      8.339315
  46        8.405827      8.405805
  47       12.443732     12.435879
  48       12.452077     12.451766
 
  0.8163265E-01  0.0000000E+00  0.8163265E-01  0.3333333E-02
   1      -11.056605    -11.056595
   2       -9.930159     -9.930148
   3       -9.930159     -9.930148
   4       -9.907383     -9.907372
   5       -4.359597     -4.359671
   6       -4.357037     -4.357098
   7       -4.357037     -4.357098
   8       -4.353672     -4.353746
   9       -4.350836     -4.350910
  10       -4.347419     -4.347481
  11       -4.046708     -4.046788
  12       -4.046708     -4.046788
  13       -4.040880     -4.040960
  14       -4.039393     -4.039474
  15       -4.039393     -4.039474
  16       -4.033769     -4.033850
  17       -3.888763     -3.888849
  18       -3.885810     -3.885895
  19       -3.821025     -3.821112
  20       -3.819551     -3.819638
  21       -3.819551     -3.819638
  22       -3.701641     -3.701730
  23       -3.701641     -3.701730
  24       -3.658396     -3.658486
  25       -2.577725     -2.577747
  26       -2.493546     -2.493570
  27       -2.493546     -2.493570
  28       -0.417952     -0.417935
  29       -0.257688     -0.257670
  30       -0.257688     -0.257670
  31       -0.241413     -0.241396
  32       -0.241413     -0.241396
  33       -0.199864     -0.199846
  34        1.512581      1.512587
  35        1.796026      1.796045
  36        1.870606      1.870625
  37        4.235258      4.235165
  38        5.481376      5.481349
  39        5.481376      5.481349
  40        5.512165      5.512138
  41        6.079531      6.079480
  42        6.079532      6.079480
  43        6.165156      6.165107
  44        8.212105      8.212082
  45        8.350871      8.350849
  46        8.436623      8.436600
  47       12.339112     12.357801
  48       12.384374     12.385883
 
  0.9183673E-01  0.0000000E+00  0.9183673E-01  0.3333333E-02
   1      -11.048041    -11.048031
   2       -9.935899     -9.935887
   3       -9.935899     -9.935887
   4       -9.907401     -9.907390
   5       -4.359732     -4.359806
   6       -4.355158     -4.355220
   7       -4.355158     -4.355220
   8       -4.352340     -4.352414
   9       -4.348792     -4.348866
  10       -4.343300     -4.343363
  11       -4.049970     -4.050050
  12       -4.049970     -4.050050
  13       -4.042604     -4.042684
  14       -4.040624     -4.040705
  15       -4.040624     -4.040705
  16       -4.033298     -4.033379
  17       -3.889292     -3.889378
  18       -3.885565     -3.885651
  19       -3.822316     -3.822403
  20       -3.820443     -3.820530
  21       -3.820443     -3.820530
  22       -3.706434     -3.706523
  23       -3.706434     -3.706523
  24       -3.652815     -3.652905
  25       -2.578306     -2.578328
  26       -2.473422     -2.473446
  27       -2.473422     -2.473446
  28       -0.459046     -0.459030
  29       -0.261563     -0.261545
  30       -0.261563     -0.261545
  31       -0.238428     -0.238411
  32       -0.238428     -0.238411
  33       -0.187872     -0.187854
  34        1.429284      1.429288
  35        1.771396      1.771414
  36        1.865501      1.865521
  37        4.307309      4.307218
  38        5.516119      5.516093
  39        5.516118      5.516092
  40        5.544882      5.544855
  41        6.109382      6.109330
  42        6.109380      6.109330
  43        6.224224      6.224176
  44        8.191973      8.191949
  45        8.363888      8.363866
  46        8.470821      8.470799
  47       12.233814     12.234778
  48       12.251007     12.249448
 
  0.1020408E+00  0.0000000E+00  0.1020408E+00  0.3333333E-02
   1      -11.038512    -11.038503
   2       -9.942212     -9.942201
   3       -9.942212     -9.942201
   4       -9.907479     -9.907467
   5       -4.359839     -4.359912
   6       -4.353067     -4.353129
   7       -4.353067     -4.353129
   8       -4.350856     -4.350930
   9       -4.346533     -4.346608
  10       -4.338851     -4.338914
  11       -4.053596     -4.053676
  12       -4.053596     -4.053676
  13       -4.044523     -4.044603
  14       -4.041948     -4.042028
  15       -4.041948     -4.042028
  16       -4.032626     -4.032708
  17       -3.889871     -3.889957
  18       -3.885285     -3.885370
  19       -3.823734     -3.823821
  20       -3.821414     -3.821501
  21       -3.821414     -3.821501
  22       -3.711497     -3.711585
  23       -3.711497     -3.711585
  24       -3.646764     -3.646854
  25       -2.579046     -2.579067
  26       -2.451775     -2.451800
  27       -2.451775     -2.451800
  28       -0.502851     -0.502835
  29       -0.266029     -0.266012
  30       -0.266029     -0.266012
  31       -0.234351     -0.234334
  32       -0.234351     -0.234334
  33       -0.174535     -0.174516
  34        1.341849      1.341851
  35        1.743968      1.743987
  36        1.859739      1.859758
  37        4.382247      4.382158
  38        5.554808      5.554781
  39        5.554807      5.554780
  40        5.577697      5.577667
  41        6.142272      6.142221
  42        6.142272      6.142221
  43        6.291752      6.291705
  44        8.171040      8.171015
  45        8.378370      8.378348
  46        8.508136      8.508114
  47       12.122194     12.116485
  48       12.143752     12.170139
 
  0.1122449E+00  0.0000000E+00  0.1122449E+00  0.3333333E-02
   1      -11.028034    -11.028025
   2       -9.949070     -9.949059
   3       -9.949070     -9.949059
   4       -9.907636     -9.907625
   5       -4.359899     -4.359973
   6       -4.350763     -4.350825
   7       -4.350763     -4.350825
   8       -4.349225     -4.349299
   9       -4.344071     -4.344145
  10       -4.334122     -4.334185
  11       -4.057575     -4.057656
  12       -4.057575     -4.057656
  13       -4.046632     -4.046712
  14       -4.043351     -4.043432
  15       -4.043351     -4.043432
  16       -4.031715     -4.031797
  17       -3.890497     -3.890582
  18       -3.884966     -3.885052
  19       -3.825272     -3.825359
  20       -3.822460     -3.822547
  21       -3.822460     -3.822547
  22       -3.716765     -3.716854
  23       -3.716765     -3.716854
  24       -3.640304     -3.640394
  25       -2.579976     -2.579997
  26       -2.428847     -2.428871
  27       -2.428847     -2.428871
  28       -0.548814     -0.548799
  29       -0.271093     -0.271076
  30       -0.271093     -0.271076
  31       -0.229002     -0.228985
  32       -0.229002     -0.228985
  33       -0.159872     -0.159854
  34        1.251092      1.251092
  35        1.713799      1.713818
  36        1.853345      1.853365
  37        4.459293      4.459205
  38        5.597397      5.597371
  39        5.597396      5.597371
  40        5.610213      5.610183
  41        6.178054      6.178002
  42        6.178053      6.178001
  43        6.367502      6.367455
  44        8.149710      8.149686
  45        8.394301      8.394277
  46        8.548245      8.548222
  47       11.989376     11.979512
  48       12.062304     12.067385
 
  0.1224490E+00  0.0000000E+00  0.1224490E+00  0.3333333E-02
   1      -11.016627    -11.016617
   2       -9.956434     -9.956422
   3       -9.956434     -9.956422
   4       -9.907898     -9.907886
   5       -4.359904     -4.359978
   6       -4.348248     -4.348310
   7       -4.348248     -4.348310
   8       -4.347450     -4.347524
   9       -4.341417     -4.341491
  10       -4.329168     -4.329231
  11       -4.061894     -4.061975
  12       -4.061894     -4.061975
  13       -4.048930     -4.049010
  14       -4.044819     -4.044899
  15       -4.044819     -4.044899
  16       -4.030530     -4.030612
  17       -3.891166     -3.891252
  18       -3.884608     -3.884694
  19       -3.826924     -3.827011
  20       -3.823573     -3.823660
  21       -3.823573     -3.823660
  22       -3.722181     -3.722269
  23       -3.722181     -3.722269
  24       -3.633502     -3.633592
  25       -2.581130     -2.581150
  26       -2.404871     -2.404896
  27       -2.404871     -2.404896
  28       -0.596387     -0.596372
  29       -0.276729     -0.276712
  30       -0.276729     -0.276712
  31       -0.222183     -0.222166
  32       -0.222183     -0.222166
  33       -0.143915     -0.143897
  34        1.157680      1.157679
  35        1.680901      1.680920
  36        1.846275      1.846295
  37        4.537781      4.537694
  38        5.642247      5.642217
  39        5.643834      5.643808
  40        5.643834      5.643808
  41        6.216564      6.216512
  42        6.216563      6.216512
  43        6.450997      6.450951
  44        8.128365      8.128340
  45        8.411648      8.411625
  46        8.590755      8.590733
  47       11.843256     11.843068
  48       11.889260     11.889732
 
  0.1326531E+00  0.0000000E+00  0.1326531E+00  0.3333333E-02
   1      -11.004311    -11.004301
   2       -9.964270     -9.964259
   3       -9.964270     -9.964259
   4       -9.908277     -9.908265
   5       -4.359832     -4.359905
   6       -4.345531     -4.345605
   7       -4.345527     -4.345590
   8       -4.345527     -4.345590
   9       -4.338579     -4.338654
  10       -4.324040     -4.324104
  11       -4.066538     -4.066618
  12       -4.066538     -4.066618
  13       -4.051410     -4.051490
  14       -4.046338     -4.046418
  15       -4.046338     -4.046418
  16       -4.029033     -4.029115
  17       -3.891874     -3.891959
  18       -3.884208     -3.884294
  19       -3.828678     -3.828765
  20       -3.824749     -3.824835
  21       -3.824749     -3.824835
  22       -3.727691     -3.727779
  23       -3.727691     -3.727779
  24       -3.626428     -3.626518
  25       -2.582532     -2.582552
  26       -2.380106     -2.380131
  27       -2.380106     -2.380131
  28       -0.644946     -0.644932
  29       -0.282922     -0.282906
  30       -0.282922     -0.282906
  31       -0.213713     -0.213696
  32       -0.213713     -0.213696
  33       -0.126675     -0.126657
  34        1.062217      1.062215
  35        1.645358      1.645376
  36        1.838525      1.838545
  37        4.617184      4.617097
  38        5.673784      5.673753
  39        5.694057      5.694031
  40        5.694056      5.694031
  41        6.257617      6.257565
  42        6.257616      6.257565
  43        6.541604      6.541558
  44        8.107391      8.107365
  45        8.430392      8.430369
  46        8.635242      8.635219
  47       11.696894     11.697834
  48       11.729952     11.753447
 
  0.1428571E+00  0.0000000E+00  0.1428571E+00  0.3333333E-02
   1      -10.991100    -10.991090
   2       -9.972541     -9.972530
   3       -9.972541     -9.972530
   4       -9.908802     -9.908790
   5       -4.359664     -4.359737
   6       -4.343472     -4.343546
   7       -4.342604     -4.342667
   8       -4.342604     -4.342667
   9       -4.335572     -4.335647
  10       -4.318797     -4.318861
  11       -4.071488     -4.071569
  12       -4.071488     -4.071569
  13       -4.054071     -4.054150
  14       -4.047894     -4.047975
  15       -4.047894     -4.047975
  16       -4.027192     -4.027275
  17       -3.892616     -3.892702
  18       -3.883763     -3.883849
  19       -3.830529     -3.830615
  20       -3.825984     -3.826071
  21       -3.825984     -3.826071
  22       -3.733251     -3.733339
  23       -3.733251     -3.733339
  24       -3.619163     -3.619253
  25       -2.584216     -2.584235
  26       -2.354805     -2.354829
  27       -2.354805     -2.354829
  28       -0.693952     -0.693938
  29       -0.289651     -0.289635
  30       -0.289651     -0.289635
  31       -0.203413     -0.203397
  32       -0.203413     -0.203397
  33       -0.108184     -0.108166
  34        0.965188      0.965184
  35        1.607213      1.607231
  36        1.830075      1.830095
  37        4.697053      4.696967
  38        5.704906      5.704874
  39        5.748003      5.747977
  40        5.748003      5.747977
  41        6.301013      6.300961
  42        6.301013      6.300961
  43        6.638536      6.638491
  44        8.087149      8.087123
  45        8.450501      8.450478
  46        8.681223      8.681200
  47       11.543318     11.544215
  48       11.551149     11.585841
 
  0.1530612E+00  0.0000000E+00  0.1530612E+00  0.3333333E-02
   1      -10.977015    -10.977005
   2       -9.981207     -9.981195
   3       -9.981207     -9.981195
   4       -9.909498     -9.909487
   5       -4.359379     -4.359453
   6       -4.341275     -4.341350
   7       -4.339481     -4.339544
   8       -4.339481     -4.339544
   9       -4.332407     -4.332482
  10       -4.313494     -4.313559
  11       -4.076724     -4.076804
  12       -4.076724     -4.076804
  13       -4.056903     -4.056983
  14       -4.049474     -4.049555
  15       -4.049474     -4.049555
  16       -4.024981     -4.025064
  17       -3.893389     -3.893475
  18       -3.883270     -3.883356
  19       -3.832466     -3.832553
  20       -3.827274     -3.827361
  21       -3.827274     -3.827361
  22       -3.738819     -3.738907
  23       -3.738819     -3.738907
  24       -3.611795     -3.611885
  25       -2.586199     -2.586217
  26       -2.329216     -2.329240
  27       -2.329216     -2.329240
  28       -0.742848     -0.742835
  29       -0.296873     -0.296857
  30       -0.296873     -0.296857
  31       -0.191089     -0.191073
  32       -0.191089     -0.191073
  33       -0.088466     -0.088448
  34        0.867012      0.867007
  35        1.566533      1.566551
  36        1.820910      1.820929
  37        4.777027      4.776943
  38        5.735758      5.735725
  39        5.805605      5.805579
  40        5.805604      5.805578
  41        6.346541      6.346489
  42        6.346541      6.346489
  43        6.740938      6.740895
  44        8.067982      8.067956
  45        8.471945      8.471921
  46        8.728163      8.728140
  47       11.388662     11.383307
  48       11.421722     11.452662
 
  0.1632653E+00  0.0000000E+00  0.1632653E+00  0.3333333E-02
   1      -10.962079    -10.962069
   2       -9.990229     -9.990218
   3       -9.990229     -9.990218
   4       -9.910396     -9.910384
   5       -4.358956     -4.359029
   6       -4.338945     -4.339020
   7       -4.336165     -4.336229
   8       -4.336165     -4.336229
   9       -4.329097     -4.329172
  10       -4.308192     -4.308257
  11       -4.082222     -4.082302
  12       -4.082222     -4.082302
  13       -4.059907     -4.059987
  14       -4.051066     -4.051146
  15       -4.051066     -4.051146
  16       -4.022377     -4.022460
  17       -3.894187     -3.894272
  18       -3.882727     -3.882813
  19       -3.834482     -3.834569
  20       -3.828619     -3.828706
  21       -3.828619     -3.828706
  22       -3.744362     -3.744449
  23       -3.744362     -3.744449
  24       -3.604422     -3.604513
  25       -2.588515     -2.588532
  26       -2.303590     -2.303615
  27       -2.303590     -2.303615
  28       -0.791095     -0.791083
  29       -0.304556     -0.304541
  30       -0.304556     -0.304541
  31       -0.176574     -0.176558
  32       -0.176574     -0.176558
  33       -0.067564     -0.067546
  34        0.768047      0.768041
  35        1.523397      1.523414
  36        1.811011      1.811031
  37        4.856818      4.856733
  38        5.766500      5.766467
  39        5.866786      5.866760
  40        5.866786      5.866760
  41        6.393965      6.393912
  42        6.393965      6.393912
  43        6.847905      6.847862
  44        8.050213      8.050187
  45        8.494689      8.494665
  46        8.775482      8.775459
  47       11.224384     11.224524
  48       11.260175     11.228370
 
  0.1734694E+00  0.0000000E+00  0.1734694E+00  0.3333333E-02
   1      -10.946316    -10.946306
   2       -9.999563     -9.999552
   3       -9.999563     -9.999552