ZnS (band)                              
   1.00000000000000     
     5.446645    0.000000    0.000000
     0.000000    5.446645    0.000000
     0.000000    0.000000    5.446645
   Zn   S 
     4     4
Direct
  0.000000  0.000000  0.000000
  0.000000  0.500000  0.500000
  0.500000  0.000000  0.500000
  0.500000  0.500000  0.000000
  0.250000  0.750000  0.750000
  0.250000  0.250000  0.250000
  0.750000  0.750000  0.250000
  0.750000  0.250000  0.750000
 
   40   40   40
 0.65640E-01 0.31319E-02 0.16044E-02 0.57109E-02 0.22140E-01 0.54362E-01 0.81997E-01 0.81765E-01 0.66879E-01 0.59481E-01
 0.53507E-01 0.41284E-01 0.28833E-01 0.19770E-01 0.13511E-01 0.92397E-02 0.64118E-02 0.45593E-02 0.33760E-02 0.27201E-02
 0.25121E-02 0.27201E-02 0.33760E-02 0.45593E-02 0.64118E-02 0.92397E-02 0.13511E-01 0.19770E-01 0.28833E-01 0.41284E-01
 0.53507E-01 0.59481E-01 0.66879E-01 0.81765E-01 0.81997E-01 0.54362E-01 0.22140E-01 0.57109E-02 0.16044E-02 0.31319E-02
 0.31319E-02 0.16243E-02 0.20199E-02 0.73568E-02 0.25667E-01 0.58306E-01 0.83719E-01 0.81377E-01 0.67185E-01 0.61490E-01
 0.56570E-01 0.44615E-01 0.31921E-01 0.22322E-01 0.15409E-01 0.10530E-01 0.72296E-02 0.50579E-02 0.36921E-02 0.29516E-02
 0.27201E-02 0.29516E-02 0.36921E-02 0.50579E-02 0.72296E-02 0.10530E-01 0.15409E-01 0.22322E-01 0.31921E-01 0.44615E-01
 0.56570E-01 0.61490E-01 0.67185E-01 0.81377E-01 0.83719E-01 0.58306E-01 0.25667E-01 0.73568E-02 0.20199E-02 0.16243E-02
 0.16044E-02 0.20199E-02 0.45606E-02 0.14026E-01 0.37168E-01 0.69181E-01 0.87236E-01 0.79972E-01 0.68900E-01 0.68275E-01
 0.66263E-01 0.55138E-01 0.41906E-01 0.30763E-01 0.21779E-01 0.14886E-01 0.99848E-02 0.67227E-02 0.47291E-02 0.36921E-02
 0.33760E-02 0.36921E-02 0.47291E-02 0.67227E-02 0.99848E-02 0.14886E-01 0.21779E-01 0.30763E-01 0.41906E-01 0.55138E-01
 0.66263E-01 0.68275E-01 0.68900E-01 0.79972E-01 0.87236E-01 0.69181E-01 0.37168E-01 0.14026E-01 0.45606E-02 0.20199E-02
 0.57109E-02 0.73568E-02 0.14026E-01 0.30182E-01 0.57098E-01 0.82760E-01 0.88535E-01 0.78205E-01 0.74694E-01 0.82131E-01
 0.84136E-01 0.74428E-01 0.60740E-01 0.47122E-01 0.34375E-01 0.23605E-01 0.15499E-01 0.10014E-01 0.67227E-02 0.50579E-02
 0.45593E-02 0.50579E-02 0.67227E-02 0.10014E-01 0.15499E-01 0.23605E-01 0.34375E-01 0.47122E-01 0.60740E-01 0.74428E-01
 0.84136E-01 0.82131E-01 0.74694E-01 0.78205E-01 0.88535E-01 0.82760E-01 0.57098E-01 0.30182E-01 0.14026E-01 0.73568E-02
 0.22140E-01 0.25667E-01 0.37168E-01 0.57098E-01 0.79488E-01 0.90737E-01 0.85522E-01 0.80022E-01 0.89303E-01 0.10650    
 0.11256     0.10487     0.90881E-01 0.73621E-01 0.55068E-01 0.38124E-01 0.24735E-01 0.15499E-01 0.99848E-02 0.72296E-02
 0.64118E-02 0.72296E-02 0.99848E-02 0.15499E-01 0.24735E-01 0.38124E-01 0.55068E-01 0.73621E-01 0.90881E-01 0.10487    
 0.11256     0.10650     0.89303E-01 0.80022E-01 0.85522E-01 0.90737E-01 0.79488E-01 0.57098E-01 0.37168E-01 0.25667E-01
 0.54362E-01 0.58306E-01 0.69181E-01 0.82760E-01 0.90737E-01 0.88043E-01 0.83665E-01 0.92625E-01 0.11824     0.14400    
 0.15326     0.14793     0.13302     0.11044     0.84061E-01 0.58800E-01 0.38124E-01 0.23605E-01 0.14886E-01 0.10530E-01
 0.92397E-02 0.10530E-01 0.14886E-01 0.23605E-01 0.38124E-01 0.58800E-01 0.84061E-01 0.11044     0.13302     0.14793    
 0.15326     0.14400     0.11824     0.92625E-01 0.83665E-01 0.88043E-01 0.90737E-01 0.82760E-01 0.69181E-01 0.58306E-01
 0.81997E-01 0.83719E-01 0.87236E-01 0.88535E-01 0.85522E-01 0.83665E-01 0.93795E-01 0.12292     0.16275     0.19253    
 0.20394     0.20012     0.18254     0.15344     0.11854     0.84061E-01 0.55068E-01 0.34375E-01 0.21779E-01 0.15409E-01
 0.13511E-01 0.15409E-01 0.21779E-01 0.34375E-01 0.55068E-01 0.84061E-01 0.11854     0.15344     0.18254     0.20012    
 0.20394     0.19253     0.16275     0.12292     0.93795E-01 0.83665E-01 0.85522E-01 0.88535E-01 0.87236E-01 0.83719E-01
 0.81765E-01 0.81377E-01 0.79972E-01 0.78205E-01 0.80022E-01 0.92625E-01 0.12292     0.16881     0.21388     0.24373    
 0.25621     0.25171     0.23035     0.19565     0.15344     0.11044     0.73621E-01 0.47122E-01 0.30763E-01 0.22322E-01
 0.19770E-01 0.22322E-01 0.30763E-01 0.47122E-01 0.73621E-01 0.11044     0.15344     0.19565     0.23035     0.25171    
 0.25621     0.24373     0.21388     0.16881     0.12292     0.92625E-01 0.80022E-01 0.78205E-01 0.79972E-01 0.81377E-01
 0.66879E-01 0.67185E-01 0.68900E-01 0.74694E-01 0.89303E-01 0.11824     0.16275     0.21388     0.25797     0.28741    
 0.29952     0.29292     0.26873     0.23035     0.18254     0.13302     0.90881E-01 0.60740E-01 0.41906E-01 0.31921E-01
 0.28833E-01 0.31921E-01 0.41906E-01 0.60740E-01 0.90881E-01 0.13302     0.18254     0.23035     0.26873     0.29292    
 0.29952     0.28741     0.25797     0.21388     0.16275     0.11824     0.89303E-01 0.74694E-01 0.68900E-01 0.67185E-01
 0.59481E-01 0.61490E-01 0.68275E-01 0.82131E-01 0.10650     0.14400     0.19253     0.24373     0.28741     0.31637    
 0.32701     0.31875     0.29292     0.25171     0.20012     0.14793     0.10487     0.74428E-01 0.55138E-01 0.44615E-01
 0.41284E-01 0.44615E-01 0.55138E-01 0.74428E-01 0.10487     0.14793     0.20012     0.25171     0.29292     0.31875    
 0.32701     0.31637     0.28741     0.24373     0.19253     0.14400     0.10650     0.82131E-01 0.68275E-01 0.61490E-01
 0.53507E-01 0.56570E-01 0.66263E-01 0.84136E-01 0.11256     0.15326     0.20394     0.25621     0.29952     0.32701    
 0.33629     0.32701     0.29952     0.25621     0.20394     0.15326     0.11256     0.84136E-01 0.66263E-01 0.56570E-01
 0.53507E-01 0.56570E-01 0.66263E-01 0.84136E-01 0.11256     0.15326     0.20394     0.25621     0.29952     0.32701    
 0.33629     0.32701     0.29952     0.25621     0.20394     0.15326     0.11256     0.84136E-01 0.66263E-01 0.56570E-01
 0.41284E-01 0.44615E-01 0.55138E-01 0.74428E-01 0.10487     0.14793     0.20012     0.25171     0.29292     0.31875    
 0.32701     0.31637     0.28741     0.24373     0.19253     0.14400     0.10650     0.82131E-01 0.68275E-01 0.61490E-01
 0.59481E-01 0.61490E-01 0.68275E-01 0.82131E-01 0.10650     0.14400     0.19253     0.24373     0.28741     0.31637    
 0.32701     0.31875     0.29292     0.25171     0.20012     0.14793     0.10487     0.74428E-01 0.55138E-01 0.44615E-01
 0.28833E-01 0.31921E-01 0.41906E-01 0.60740E-01 0.90881E-01 0.13302     0.18254     0.23035     0.26873     0.29292    
 0.29952     0.28741     0.25797     0.21388     0.16275     0.11824     0.89303E-01 0.74694E-01 0.68900E-01 0.67185E-01
 0.66879E-01 0.67185E-01 0.68900E-01 0.74694E-01 0.89303E-01 0.11824     0.16275     0.21388     0.25797     0.28741    
 0.29952     0.29292     0.26873     0.23035     0.18254     0.13302     0.90881E-01 0.60740E-01 0.41906E-01 0.31921E-01
 0.19770E-01 0.22322E-01 0.30763E-01 0.47122E-01 0.73621E-01 0.11044     0.15344     0.19565     0.23035     0.25171    
 0.25621     0.24373     0.21388     0.16881     0.12292     0.92625E-01 0.80022E-01 0.78205E-01 0.79972E-01 0.81377E-01
 0.81765E-01 0.81377E-01 0.79972E-01 0.78205E-01 0.80022E-01 0.92625E-01 0.12292     0.16881     0.21388     0.24373    
 0.25621     0.25171     0.23035     0.19565     0.15344     0.11044     0.73621E-01 0.47122E-01 0.30763E-01 0.22322E-01
 0.13511E-01 0.15409E-01 0.21779E-01 0.34375E-01 0.55068E-01 0.84061E-01 0.11854     0.15344     0.18254     0.20012    
 0.20394     0.19253     0.16275     0.12292     0.93795E-01 0.83665E-01 0.85522E-01 0.88535E-01 0.87236E-01 0.83719E-01
 0.81997E-01 0.83719E-01 0.87236E-01 0.88535E-01 0.85522E-01 0.83665E-01 0.93795E-01 0.12292     0.16275     0.19253    
 0.20394     0.20012     0.18254     0.15344     0.11854     0.84061E-01 0.55068E-01 0.34375E-01 0.21779E-01 0.15409E-01
 0.92397E-02 0.10530E-01 0.14886E-01 0.23605E-01 0.38124E-01 0.58800E-01 0.84061E-01 0.11044     0.13302     0.14793    
 0.15326     0.14400     0.11824     0.92625E-01 0.83665E-01 0.88043E-01 0.90737E-01 0.82760E-01 0.69181E-01 0.58306E-01
 0.54362E-01 0.58306E-01 0.69181E-01 0.82760E-01 0.90737E-01 0.88043E-01 0.83665E-01 0.92625E-01 0.11824     0.14400    
 0.15326     0.14793     0.13302     0.11044     0.84061E-01 0.58800E-01 0.38124E-01 0.23605E-01 0.14886E-01 0.10530E-01
 0.64118E-02 0.72296E-02 0.99848E-02 0.15499E-01 0.24735E-01 0.38124E-01 0.55068E-01 0.73621E-01 0.90881E-01 0.10487    
 0.11256     0.10650     0.89303E-01 0.80022E-01 0.85522E-01 0.90737E-01 0.79488E-01 0.57098E-01 0.37168E-01 0.25667E-01
 0.22140E-01 0.25667E-01 0.37168E-01 0.57098E-01 0.79488E-01 0.90737E-01 0.85522E-01 0.80022E-01 0.89303E-01 0.10650    
 0.11256     0.10487     0.90881E-01 0.73621E-01 0.55068E-01 0.38124E-01 0.24735E-01 0.15499E-01 0.99848E-02 0.72296E-02
 0.45593E-02 0.50579E-02 0.67227E-02 0.10014E-01 0.15499E-01 0.23605E-01 0.34375E-01 0.47122E-01 0.60740E-01 0.74428E-01
 0.84136E-01 0.82131E-01 0.74694E-01 0.78205E-01 0.88535E-01 0.82760E-01 0.57098E-01 0.30182E-01 0.14026E-01 0.73568E-02
 0.57109E-02 0.73568E-02 0.14026E-01 0.30182E-01 0.57098E-01 0.82760E-01 0.88535E-01 0.78205E-01 0.74694E-01 0.82131E-01
 0.84136E-01 0.74428E-01 0.60740E-01 0.47122E-01 0.34375E-01 0.23605E-01 0.15499E-01 0.10014E-01 0.67227E-02 0.50579E-02
 0.33760E-02 0.36921E-02 0.47291E-02 0.67227E-02 0.99848E-02 0.14886E-01 0.21779E-01 0.30763E-01 0.41906E-01 0.55138E-01
 0.66263E-01 0.68275E-01 0.68900E-01 0.79972E-01 0.87236E-01 0.69181E-01 0.37168E-01 0.14026E-01 0.45606E-02 0.20199E-02
 0.16044E-02 0.20199E-02 0.45606E-02 0.14026E-01 0.37168E-01 0.69181E-01 0.87236E-01 0.79972E-01 0.68900E-01 0.68275E-01
 0.66263E-01 0.55138E-01 0.41906E-01 0.30763E-01 0.21779E-01 0.14886E-01 0.99848E-02 0.67227E-02 0.47291E-02 0.36921E-02
 0.27201E-02 0.29516E-02 0.36921E-02 0.50579E-02 0.72296E-02 0.10530E-01 0.15409E-01 0.22322E-01 0.31921E-01 0.44615E-01
 0.56570E-01 0.61490E-01 0.67185E-01 0.81377E-01 0.83719E-01 0.58306E-01 0.25667E-01 0.73568E-02 0.20199E-02 0.16243E-02
 0.31319E-02 0.16243E-02 0.20199E-02 0.73568E-02 0.25667E-01 0.58306E-01 0.83719E-01 0.81377E-01 0.67185E-01 0.61490E-01
 0.56570E-01 0.44615E-01 0.31921E-01 0.22322E-01 0.15409E-01 0.10530E-01 0.72296E-02 0.50579E-02 0.36921E-02 0.29516E-02
 0.25121E-02 0.27201E-02 0.33760E-02 0.45593E-02 0.64118E-02 0.92397E-02 0.13511E-01 0.19770E-01 0.28833E-01 0.41284E-01
 0.53507E-01 0.59481E-01 0.66879E-01 0.81765E-01 0.81997E-01 0.54362E-01 0.22140E-01 0.57109E-02 0.16044E-02 0.31319E-02
 0.65640E-01 0.31319E-02 0.16044E-02 0.57109E-02 0.22140E-01 0.54362E-01 0.81997E-01 0.81765E-01 0.66879E-01 0.59481E-01
 0.53507E-01 0.41284E-01 0.28833E-01 0.19770E-01 0.13511E-01 0.92397E-02 0.64118E-02 0.45593E-02 0.33760E-02 0.27201E-02
 0.27201E-02 0.29516E-02 0.36921E-02 0.50579E-02 0.72296E-02 0.10530E-01 0.15409E-01 0.22322E-01 0.31921E-01 0.44615E-01
 0.56570E-01 0.61490E-01 0.67185E-01 0.81377E-01 0.83719E-01 0.58306E-01 0.25667E-01 0.73568E-02 0.20199E-02 0.16243E-02
 0.31319E-02 0.16243E-02 0.20199E-02 0.73568E-02 0.25667E-01 0.58306E-01 0.83719E-01 0.81377E-01 0.67185E-01 0.61490E-01
 0.56570E-01 0.44615E-01 0.31921E-01 0.22322E-01 0.15409E-01 0.10530E-01 0.72296E-02 0.50579E-02 0.36921E-02 0.29516E-02
 0.33760E-02 0.36921E-02 0.47291E-02 0.67227E-02 0.99848E-02 0.14886E-01 0.21779E-01 0.30763E-01 0.41906E-01 0.55138E-01
 0.66263E-01 0.68275E-01 0.68900E-01 0.79972E-01 0.87236E-01 0.69181E-01 0.37168E-01 0.14026E-01 0.45606E-02 0.20199E-02
 0.16044E-02 0.20199E-02 0.45606E-02 0.14026E-01 0.37168E-01 0.69181E-01 0.87236E-01 0.79972E-01 0.68900E-01 0.68275E-01
 0.66263E-01 0.55138E-01 0.41906E-01 0.30763E-01 0.21779E-01 0.14886E-01 0.99848E-02 0.67227E-02 0.47291E-02 0.36921E-02
 0.45593E-02 0.50579E-02 0.67227E-02 0.10014E-01 0.15499E-01 0.23605E-01 0.34375E-01 0.47122E-01 0.60740E-01 0.74428E-01
 0.84136E-01 0.82131E-01 0.74694E-01 0.78205E-01 0.88535E-01 0.82760E-01 0.57098E-01 0.30182E-01 0.14026E-01 0.73568E-02
 0.57109E-02 0.73568E-02 0.14026E-01 0.30182E-01 0.57098E-01 0.82760E-01 0.88535E-01 0.78205E-01 0.74694E-01 0.82131E-01
 0.84136E-01 0.74428E-01 0.60740E-01 0.47122E-01 0.34375E-01 0.23605E-01 0.15499E-01 0.10014E-01 0.67227E-02 0.50579E-02
 0.64118E-02 0.72296E-02 0.99848E-02 0.15499E-01 0.24735E-01 0.38124E-01 0.55068E-01 0.73621E-01 0.90881E-01 0.10487    
 0.11256     0.10650     0.89303E-01 0.80022E-01 0.85522E-01 0.90737E-01 0.79488E-01 0.57098E-01 0.37168E-01 0.25667E-01
 0.22140E-01 0.25667E-01 0.37168E-01 0.57098E-01 0.79488E-01 0.90737E-01 0.85522E-01 0.80022E-01 0.89303E-01 0.10650    
 0.11256     0.10487     0.90881E-01 0.73621E-01 0.55068E-01 0.38124E-01 0.24735E-01 0.15499E-01 0.99848E-02 0.72296E-02
 0.92397E-02 0.10530E-01 0.14886E-01 0.23605E-01 0.38124E-01 0.58800E-01 0.84061E-01 0.11044     0.13302     0.14793    
 0.15326     0.14400     0.11824     0.92625E-01 0.83665E-01 0.88043E-01 0.90737E-01 0.82760E-01 0.69181E-01 0.58306E-01
 0.54362E-01 0.58306E-01 0.69181E-01 0.82760E-01 0.90737E-01 0.88043E-01 0.83665E-01 0.92625E-01 0.11824     0.14400    
 0.15326     0.14793     0.13302     0.11044     0.84061E-01 0.58800E-01 0.38124E-01 0.23605E-01 0.14886E-01 0.10530E-01
 0.13511E-01 0.15409E-01 0.21779E-01 0.34375E-01 0.55068E-01 0.84061E-01 0.11854     0.15344     0.18254     0.20012    
 0.20394     0.19253     0.16275     0.12292     0.93795E-01 0.83665E-01 0.85522E-01 0.88535E-01 0.87236E-01 0.83719E-01
 0.81997E-01 0.83719E-01 0.87236E-01 0.88535E-01 0.85522E-01 0.83665E-01 0.93795E-01 0.12292     0.16275     0.19253    
 0.20394     0.20012     0.18254     0.15344     0.11854     0.84061E-01 0.55068E-01 0.34375E-01 0.21779E-01 0.15409E-01
 0.19770E-01 0.22322E-01 0.30763E-01 0.47122E-01 0.73621E-01 0.11044     0.15344     0.19565     0.23035     0.25171    
 0.25621     0.24373     0.21388     0.16881     0.12292     0.92625E-01 0.80022E-01 0.78205E-01 0.79972E-01 0.81377E-01
 0.81765E-01 0.81377E-01 0.79972E-01 0.78205E-01 0.80022E-01 0.92625E-01 0.12292     0.16881     0.21388     0.24373    
 0.25621     0.25171     0.23035     0.19565     0.15344     0.11044     0.73621E-01 0.47122E-01 0.30763E-01 0.22322E-01
 0.28833E-01 0.31921E-01 0.41906E-01 0.60740E-01 0.90881E-01 0.13302     0.18254     0.23035     0.26873     0.29292    
 0.29952     0.28741     0.25797     0.21388     0.16275     0.11824     0.89303E-01 0.74694E-01 0.68900E-01 0.67185E-01
 0.66879E-01 0.67185E-01 0.68900E-01 0.74694E-01 0.89303E-01 0.11824     0.16275     0.21388     0.25797     0.28741    
 0.29952     0.29292     0.26873     0.23035     0.18254     0.13302     0.90881E-01 0.60740E-01 0.41906E-01 0.31921E-01
 0.41284E-01 0.44615E-01 0.55138E-01 0.74428E-01 0.10487     0.14793     0.20012     0.25171     0.29292     0.31875    
 0.32701     0.31637     0.28741     0.24373     0.19253     0.14400     0.10650     0.82131E-01 0.68275E-01 0.61490E-01
 0.59481E-01 0.61490E-01 0.68275E-01 0.82131E-01 0.10650     0.14400     0.19253     0.24373     0.28741     0.31637    
 0.32701     0.31875     0.29292     0.25171     0.20012     0.14793     0.10487     0.74428E-01 0.55138E-01 0.44615E-01
 0.53507E-01 0.56570E-01 0.66263E-01 0.84136E-01 0.11256     0.15326     0.20394     0.25621     0.29952     0.32701    
 0.33629     0.32701     0.29952     0.25621     0.20394     0.15326     0.11256     0.84136E-01 0.66263E-01 0.56570E-01
 0.53507E-01 0.56570E-01 0.66263E-01 0.84136E-01 0.11256     0.15326     0.20394     0.25621     0.29952     0.32701    
 0.33629     0.32701     0.29952     0.25621     0.20394     0.15326     0.11256     0.84136E-01 0.66263E-01 0.56570E-01
 0.59481E-01 0.61490E-01 0.68275E-01 0.82131E-01 0.10650     0.14400     0.19253     0.24373     0.28741     0.31637    
 0.32701     0.31875     0.29292     0.25171     0.20012     0.14793     0.10487     0.74428E-01 0.55138E-01 0.44615E-01
 0.41284E-01 0.44615E-01 0.55138E-01 0.74428E-01 0.10487     0.14793     0.20012     0.25171     0.29292     0.31875    
 0.32701     0.31637     0.28741     0.24373     0.19253     0.14400     0.10650     0.82131E-01 0.68275E-01 0.61490E-01
 0.66879E-01 0.67185E-01 0.68900E-01 0.74694E-01 0.89303E-01 0.11824     0.16275     0.21388     0.25797     0.28741    
 0.29952     0.29292     0.26873     0.23035     0.18254     0.13302     0.90881E-01 0.60740E-01 0.41906E-01 0.31921E-01
 0.28833E-01 0.31921E-01 0.41906E-01 0.60740E-01 0.90881E-01 0.13302     0.18254     0.23035     0.26873     0.29292    
 0.29952     0.28741     0.25797     0.21388     0.16275     0.11824     0.89303E-01 0.74694E-01 0.68900E-01 0.67185E-01
 0.81765E-01 0.81377E-01 0.79972E-01 0.78205E-01 0.80022E-01 0.92625E-01 0.12292     0.16881     0.21388     0.24373    
 0.25621     0.25171     0.23035     0.19565     0.15344     0.11044     0.73621E-01 0.47122E-01 0.30763E-01 0.22322E-01
 0.19770E-01 0.22322E-01 0.30763E-01 0.47122E-01 0.73621E-01 0.11044     0.15344     0.19565     0.23035     0.25171    
 0.25621     0.24373     0.21388     0.16881     0.12292     0.92625E-01 0.80022E-01 0.78205E-01 0.79972E-01 0.81377E-01
 0.81997E-01 0.83719E-01 0.87236E-01 0.88535E-01 0.85522E-01 0.83665E-01 0.93795E-01 0.12292     0.16275     0.19253    
 0.20394     0.20012     0.18254     0.15344     0.11854     0.84061E-01 0.55068E-01 0.34375E-01 0.21779E-01 0.15409E-01
 0.13511E-01 0.15409E-01 0.21779E-01 0.34375E-01 0.55068E-01 0.84061E-01 0.11854     0.15344     0.18254     0.20012    
 0.20394     0.19253     0.16275     0.12292     0.93795E-01 0.83665E-01 0.85522E-01 0.88535E-01 0.87236E-01 0.83719E-01
 0.54362E-01 0.58306E-01 0.69181E-01 0.82760E-01 0.90737E-01 0.88043E-01 0.83665E-01 0.92625E-01 0.11824     0.14400    
 0.15326     0.14793     0.13302     0.11044     0.84061E-01 0.58800E-01 0.38124E-01 0.23605E-01 0.14886E-01 0.10530E-01
 0.92397E-02 0.10530E-01 0.14886E-01 0.23605E-01 0.38124E-01 0.58800E-01 0.84061E-01 0.11044     0.13302     0.14793    
 0.15326     0.14400     0.11824     0.92625E-01 0.83665E-01 0.88043E-01 0.90737E-01 0.82760E-01 0.69181E-01 0.58306E-01
 0.22140E-01 0.25667E-01 0.37168E-01 0.57098E-01 0.79488E-01 0.90737E-01 0.85522E-01 0.80022E-01 0.89303E-01 0.10650    
 0.11256     0.10487     0.90881E-01 0.73621E-01 0.55068E-01 0.38124E-01 0.24735E-01 0.15499E-01 0.99848E-02 0.72296E-02
 0.64118E-02 0.72296E-02 0.99848E-02 0.15499E-01 0.24735E-01 0.38124E-01 0.55068E-01 0.73621E-01 0.90881E-01 0.10487    
 0.11256     0.10650     0.89303E-01 0.80022E-01 0.85522E-01 0.90737E-01 0.79488E-01 0.57098E-01 0.37168E-01 0.25667E-01
 0.57109E-02 0.73568E-02 0.14026E-01 0.30182E-01 0.57098E-01 0.82760E-01 0.88535E-01 0.78205E-01 0.74694E-01 0.82131E-01
 0.84136E-01 0.74428E-01 0.60740E-01 0.47122E-01 0.34375E-01 0.23605E-01 0.15499E-01 0.10014E-01 0.67227E-02 0.50579E-02
 0.45593E-02 0.50579E-02 0.67227E-02 0.10014E-01 0.15499E-01 0.23605E-01 0.34375E-01 0.47122E-01 0.60740E-01 0.74428E-01
 0.84136E-01 0.82131E-01 0.74694E-01 0.78205E-01 0.88535E-01 0.82760E-01 0.57098E-01 0.30182E-01 0.14026E-01 0.73568E-02
 0.16044E-02 0.20199E-02 0.45606E-02 0.14026E-01 0.37168E-01 0.69181E-01 0.87236E-01 0.79972E-01 0.68900E-01 0.68275E-01
 0.66263E-01 0.55138E-01 0.41906E-01 0.30763E-01 0.21779E-01 0.14886E-01 0.99848E-02 0.67227E-02 0.47291E-02 0.36921E-02
 0.33760E-02 0.36921E-02 0.47291E-02 0.67227E-02 0.99848E-02 0.14886E-01 0.21779E-01 0.30763E-01 0.41906E-01 0.55138E-01
 0.66263E-01 0.68275E-01 0.68900E-01 0.79972E-01 0.87236E-01 0.69181E-01 0.37168E-01 0.14026E-01 0.45606E-02 0.20199E-02
 0.31319E-02 0.16243E-02 0.20199E-02 0.73568E-02 0.25667E-01 0.58306E-01 0.83719E-01 0.81377E-01 0.67185E-01 0.61490E-01
 0.56570E-01 0.44615E-01 0.31921E-01 0.22322E-01 0.15409E-01 0.10530E-01 0.72296E-02 0.50579E-02 0.36921E-02 0.29516E-02
 0.27201E-02 0.29516E-02 0.36921E-02 0.50579E-02 0.72296E-02 0.10530E-01 0.15409E-01 0.22322E-01 0.31921E-01 0.44615E-01
 0.56570E-01 0.61490E-01 0.67185E-01 0.81377E-01 0.83719E-01 0.58306E-01 0.25667E-01 0.73568E-02 0.20199E-02 0.16243E-02
 0.31319E-02 0.16243E-02 0.20199E-02 0.73568E-02 0.25667E-01 0.58306E-01 0.83719E-01 0.81377E-01 0.67185E-01 0.61490E-01
 0.56570E-01 0.44615E-01 0.31921E-01 0.22322E-01 0.15409E-01 0.10530E-01 0.72296E-02 0.50579E-02 0.36921E-02 0.29516E-02
 0.27201E-02 0.29516E-02 0.36921E-02 0.50579E-02 0.72296E-02 0.10530E-01 0.15409E-01 0.22322E-01 0.31921E-01 0.44615E-01
 0.56570E-01 0.61490E-01 0.67185E-01 0.81377E-01 0.83719E-01 0.58306E-01 0.25667E-01 0.73568E-02 0.20199E-02 0.16243E-02
 0.16243E-02 0.13271E-02 0.24128E-02 0.88413E-02 0.28774E-01 0.61737E-01 0.85043E-01 0.81293E-01 0.69798E-01 0.68846E-01
 0.67947E-01 0.57325E-01 0.43751E-01 0.32181E-01 0.22870E-01 0.15727E-01 0.10592E-01 0.70535E-02 0.47722E-02 0.34924E-02
 0.29516E-02 0.29558E-02 0.34381E-02 0.44490E-02 0.61499E-02 0.88482E-02 0.12971E-01 0.19003E-01 0.27707E-01 0.39789E-01
 0.52259E-01 0.58913E-01 0.65789E-01 0.80811E-01 0.85427E-01 0.62594E-01 0.30044E-01 0.97908E-02 0.29008E-02 0.15979E-02
 0.20199E-02 0.24128E-02 0.53796E-02 0.15888E-01 0.40243E-01 0.72039E-01 0.88050E-01 0.81273E-01 0.75908E-01 0.83796E-01
 0.89176E-01 0.80831E-01 0.66500E-01 0.51935E-01 0.38294E-01 0.26705E-01 0.17759E-01 0.11319E-01 0.71252E-02 0.47722E-02
 0.36921E-02 0.34381E-02 0.38080E-02 0.48130E-02 0.66353E-02 0.96065E-02 0.14123E-01 0.20547E-01 0.29417E-01 0.41357E-01
 0.53795E-01 0.60309E-01 0.65218E-01 0.78821E-01 0.88420E-01 0.73237E-01 0.42454E-01 0.17937E-01 0.65506E-02 0.29008E-02
 0.73568E-02 0.88413E-02 0.15888E-01 0.32825E-01 0.60229E-01 0.84905E-01 0.89770E-01 0.83774E-01 0.90557E-01 0.11185    
 0.12493     0.11945     0.10452     0.85716E-01 0.65325E-01 0.46356E-01 0.30695E-01 0.18980E-01 0.11319E-01 0.70535E-02
 0.50579E-02 0.44490E-02 0.48130E-02 0.61202E-02 0.86141E-02 0.12706E-01 0.18759E-01 0.26822E-01 0.36814E-01 0.48903E-01
 0.60848E-01 0.66096E-01 0.66682E-01 0.75260E-01 0.88606E-01 0.85625E-01 0.62348E-01 0.35600E-01 0.17937E-01 0.97908E-02
 0.25667E-01 0.28774E-01 0.40243E-01 0.60229E-01 0.82102E-01 0.92604E-01 0.90529E-01 0.95337E-01 0.12229     0.16000    
 0.17975     0.17668     0.16042     0.13547     0.10571     0.76209E-01 0.50473E-01 0.30695E-01 0.17759E-01 0.10592E-01
 0.72296E-02 0.61499E-02 0.66353E-02 0.86141E-02 0.12436E-01 0.18635E-01 0.27512E-01 0.38568E-01 0.50582E-01 0.62800E-01
 0.73620E-01 0.77248E-01 0.72730E-01 0.72658E-01 0.83323E-01 0.91611E-01 0.83002E-01 0.62348E-01 0.42454E-01 0.30044E-01
 0.58306E-01 0.61737E-01 0.72039E-01 0.84905E-01 0.92604E-01 0.93048E-01 0.98764E-01 0.12699     0.18013     0.23012    
 0.25189     0.24904     0.22927     0.19637     0.15597     0.11424     0.76209E-01 0.46356E-01 0.26705E-01 0.15727E-01
 0.10530E-01 0.88482E-02 0.96065E-02 0.12706E-01 0.18635E-01 0.28033E-01 0.41056E-01 0.56483E-01 0.71543E-01 0.83923E-01
 0.92761E-01 0.94563E-01 0.86024E-01 0.76036E-01 0.76606E-01 0.86090E-01 0.91611E-01 0.85625E-01 0.73237E-01 0.62594E-01
 0.83719E-01 0.85043E-01 0.88050E-01 0.89770E-01 0.90529E-01 0.98764E-01 0.12857     0.18875     0.26082     0.31039    
 0.32868     0.32296     0.29795     0.25793     0.20880     0.15597     0.10571     0.65325E-01 0.38294E-01 0.22870E-01
 0.15409E-01 0.12971E-01 0.14123E-01 0.18759E-01 0.27512E-01 0.41056E-01 0.59233E-01 0.80001E-01 0.99112E-01 0.11234    
 0.11868     0.11781     0.10697     0.89400E-01 0.77168E-01 0.76606E-01 0.83323E-01 0.88606E-01 0.88420E-01 0.85427E-01
 0.81377E-01 0.81293E-01 0.81273E-01 0.83774E-01 0.95337E-01 0.12699     0.18875     0.27083     0.34108     0.38125    
 0.39394     0.38418     0.35551     0.31220     0.25793     0.19637     0.13547     0.85716E-01 0.51935E-01 0.32181E-01
 0.22322E-01 0.19003E-01 0.20547E-01 0.26822E-01 0.38568E-01 0.56483E-01 0.80001E-01 0.10612     0.12952     0.14467    
 0.14932     0.14484     0.13179     0.11093     0.89400E-01 0.76036E-01 0.72658E-01 0.75260E-01 0.78821E-01 0.80811E-01
 0.67185E-01 0.69798E-01 0.75908E-01 0.90557E-01 0.12229     0.18013     0.26082     0.34108     0.39928     0.43101    
 0.43939     0.42760     0.39888     0.35551     0.29795     0.22927     0.16042     0.10452     0.66500E-01 0.43751E-01
 0.31921E-01 0.27707E-01 0.29417E-01 0.36814E-01 0.50582E-01 0.71543E-01 0.99112E-01 0.12952     0.15643     0.17390    
 0.17866     0.17123     0.15461     0.13179     0.10697     0.86024E-01 0.72730E-01 0.66682E-01 0.65218E-01 0.65789E-01
 0.61490E-01 0.68846E-01 0.83796E-01 0.11185     0.16000     0.23012     0.31039     0.38125     0.43101     0.45816    
 0.46502     0.45431     0.42760     0.38418     0.32296     0.24904     0.17668     0.11945     0.80831E-01 0.57325E-01
 0.44615E-01 0.39789E-01 0.41357E-01 0.48903E-01 0.62800E-01 0.83923E-01 0.11234     0.14467     0.17390     0.19330    
 0.19926     0.19111     0.17123     0.14484     0.11781     0.94563E-01 0.77248E-01 0.66096E-01 0.60309E-01 0.58913E-01
 0.56570E-01 0.67947E-01 0.89176E-01 0.12493     0.17975     0.25189     0.32868     0.39394     0.43939     0.46502    
 0.47321     0.46502     0.43939     0.39394     0.32868     0.25189     0.17975     0.12493     0.89176E-01 0.67947E-01
 0.56570E-01 0.52259E-01 0.53795E-01 0.60848E-01 0.73620E-01 0.92761E-01 0.11868     0.14932     0.17866     0.19926    
 0.20652     0.19926     0.17866     0.14932     0.11868     0.92761E-01 0.73620E-01 0.60848E-01 0.53795E-01 0.52259E-01
 0.44615E-01 0.57325E-01 0.80831E-01 0.11945     0.17668     0.24904     0.32296     0.38418     0.42760     0.45431    
 0.46502     0.45816     0.43101     0.38125     0.31039     0.23012     0.16000     0.11185     0.83796E-01 0.68846E-01
 0.61490E-01 0.58913E-01 0.60309E-01 0.66096E-01 0.77248E-01 0.94563E-01 0.11781     0.14484     0.17123     0.19111    
 0.19926     0.19330     0.17390     0.14467     0.11234     0.83923E-01 0.62800E-01 0.48903E-01 0.41357E-01 0.39789E-01
 0.31921E-01 0.43751E-01 0.66500E-01 0.10452     0.16042     0.22927     0.29795     0.35551     0.39888     0.42760    
 0.43939     0.43101     0.39928     0.34108     0.26082     0.18013     0.12229     0.90557E-01 0.75908E-01 0.69798E-01
 0.67185E-01 0.65789E-01 0.65218E-01 0.66682E-01 0.72730E-01 0.86024E-01 0.10697     0.13179     0.15461     0.17123    
 0.17866     0.17390     0.15643     0.12952     0.99112E-01 0.71543E-01 0.50582E-01 0.36814E-01 0.29417E-01 0.27707E-01
 0.22322E-01 0.32181E-01 0.51935E-01 0.85716E-01 0.13547     0.19637     0.25793     0.31220     0.35551     0.38418    
 0.39394     0.38125     0.34108     0.27083     0.18875     0.12699     0.95337E-01 0.83774E-01 0.81273E-01 0.81293E-01
 0.81377E-01 0.80811E-01 0.78821E-01 0.75260E-01 0.72658E-01 0.76036E-01 0.89400E-01 0.11093     0.13179     0.14484    
 0.14932     0.14467     0.12952     0.10612     0.80001E-01 0.56483E-01 0.38568E-01 0.26822E-01 0.20547E-01 0.19003E-01
 0.15409E-01 0.22870E-01 0.38294E-01 0.65325E-01 0.10571     0.15597     0.20880     0.25793     0.29795     0.32296    
 0.32868     0.31039     0.26082     0.18875     0.12857     0.98764E-01 0.90529E-01 0.89770E-01 0.88050E-01 0.85043E-01
 0.83719E-01 0.85427E-01 0.88420E-01 0.88606E-01 0.83323E-01 0.76606E-01 0.77168E-01 0.89400E-01 0.10697     0.11781    
 0.11868     0.11234     0.99112E-01 0.80001E-01 0.59233E-01 0.41056E-01 0.27512E-01 0.18759E-01 0.14123E-01 0.12971E-01
 0.10530E-01 0.15727E-01 0.26705E-01 0.46356E-01 0.76209E-01 0.11424     0.15597     0.19637     0.22927     0.24904    
 0.25189     0.23012     0.18013     0.12699     0.98764E-01 0.93048E-01 0.92604E-01 0.84905E-01 0.72039E-01 0.61737E-01
 0.58306E-01 0.62594E-01 0.73237E-01 0.85625E-01 0.91611E-01 0.86090E-01 0.76606E-01 0.76036E-01 0.86024E-01 0.94563E-01
 0.92761E-01 0.83923E-01 0.71543E-01 0.56483E-01 0.41056E-01 0.28033E-01 0.18635E-01 0.12706E-01 0.96065E-02 0.88482E-02
 0.72296E-02 0.10592E-01 0.17759E-01 0.30695E-01 0.50473E-01 0.76209E-01 0.10571     0.13547     0.16042     0.17668    
 0.17975     0.16000     0.12229     0.95337E-01 0.90529E-01 0.92604E-01 0.82102E-01 0.60229E-01 0.40243E-01 0.28774E-01
 0.25667E-01 0.30044E-01 0.42454E-01 0.62348E-01 0.83002E-01 0.91611E-01 0.83323E-01 0.72658E-01 0.72730E-01 0.77248E-01
 0.73620E-01 0.62800E-01 0.50582E-01 0.38568E-01 0.27512E-01 0.18635E-01 0.12436E-01 0.86141E-02 0.66353E-02 0.61499E-02
 0.50579E-02 0.70535E-02 0.11319E-01 0.18980E-01 0.30695E-01 0.46356E-01 0.65325E-01 0.85716E-01 0.10452     0.11945    
 0.12493     0.11185     0.90557E-01 0.83774E-01 0.89770E-01 0.84905E-01 0.60229E-01 0.32825E-01 0.15888E-01 0.88413E-02
 0.73568E-02 0.97908E-02 0.17937E-01 0.35600E-01 0.62348E-01 0.85625E-01 0.88606E-01 0.75260E-01 0.66682E-01 0.66096E-01
 0.60848E-01 0.48903E-01 0.36814E-01 0.26822E-01 0.18759E-01 0.12706E-01 0.86141E-02 0.61202E-02 0.48130E-02 0.44490E-02
 0.36921E-02 0.47722E-02 0.71252E-02 0.11319E-01 0.17759E-01 0.26705E-01 0.38294E-01 0.51935E-01 0.66500E-01 0.80831E-01
 0.89176E-01 0.83796E-01 0.75908E-01 0.81273E-01 0.88050E-01 0.72039E-01 0.40243E-01 0.15888E-01 0.53796E-02 0.24128E-02
 0.20199E-02 0.29008E-02 0.65506E-02 0.17937E-01 0.42454E-01 0.73237E-01 0.88420E-01 0.78821E-01 0.65218E-01 0.60309E-01
 0.53795E-01 0.41357E-01 0.29417E-01 0.20547E-01 0.14123E-01 0.96065E-02 0.66353E-02 0.48130E-02 0.38080E-02 0.34381E-02
 0.29516E-02 0.34924E-02 0.47722E-02 0.70535E-02 0.10592E-01 0.15727E-01 0.22870E-01 0.32181E-01 0.43751E-01 0.57325E-01
 0.67947E-01 0.68846E-01 0.69798E-01 0.81293E-01 0.85043E-01 0.61737E-01 0.28774E-01 0.88413E-02 0.24128E-02 0.13271E-02
 0.16243E-02 0.15979E-02 0.29008E-02 0.97908E-02 0.30044E-01 0.62594E-01 0.85427E-01 0.80811E-01 0.65789E-01 0.58913E-01
 0.52259E-01 0.39789E-01 0.27707E-01 0.19003E-01 0.12971E-01 0.88482E-02 0.61499E-02 0.44490E-02 0.34381E-02 0.29558E-02
 0.27201E-02 0.29516E-02 0.36921E-02 0.50579E-02 0.72296E-02 0.10530E-01 0.15409E-01 0.22322E-01 0.31921E-01 0.44615E-01
 0.56570E-01 0.61490E-01 0.67185E-01 0.81377E-01 0.83719E-01 0.58306E-01 0.25667E-01 0.73568E-02 0.20199E-02 0.16243E-02
 0.31319E-02 0.16243E-02 0.20199E-02 0.73568E-02 0.25667E-01 0.58306E-01 0.83719E-01 0.81377E-01 0.67185E-01 0.61490E-01