 running on   32 total cores
 distrk:  each k-point on   32 cores,    1 groups
 distr:  one band on    8 cores,    4 groups
 using from now: INCAR     
 vasp.5.3.3 18Dez12 (build Jun 24 2015 15:58:02) complex                        
  
 POSCAR found type information on POSCAR  Zn S 
 POSCAR found :  2 types and       8 ions
 scaLAPACK will be used

 ----------------------------------------------------------------------------- 
|                                                                             |
|           W    W    AA    RRRRR   N    N  II  N    N   GGGG   !!!           |
|           W    W   A  A   R    R  NN   N  II  NN   N  G    G  !!!           |
|           W    W  A    A  R    R  N N  N  II  N N  N  G       !!!           |
|           W WW W  AAAAAA  RRRRR   N  N N  II  N  N N  G  GGG   !            |
|           WW  WW  A    A  R   R   N   NN  II  N   NN  G    G                |
|           W    W  A    A  R    R  N    N  II  N    N   GGGG   !!!           |
|                                                                             |
|      For LVTOT=.TRUE. VASP.5.x writes the TOTAL local potential to          |
|      the file LOCPOT. If you want the Hartree contributions only, use       |
|      LVHAR=.TRUE. instead.                                                  |
|                                                                             |
 ----------------------------------------------------------------------------- 

 LDA part: xc-table for Pade appr. of Perdew
 WARNING: stress and forces are not correct
 POSCAR, INCAR and KPOINTS ok, starting setup
 FFT: planning ...
 WAVECAR not read
 charge-density read from file: ZnS                                     
 magnetization density read from file 1
 entering main loop
       N       E                     dE             d eps       ncg     rms          rms(c)
DAV:   1     0.651071784547E+03    0.65107E+03   -0.30761E+04 57740   0.175E+03
DAV:   2     0.883504380365E+02   -0.56272E+03   -0.52898E+03 57616   0.451E+02
DAV:   3    -0.185146098771E+02   -0.10687E+03   -0.10173E+03 62940   0.168E+02
DAV:   4    -0.262329731224E+02   -0.77184E+01   -0.76374E+01 67528   0.448E+01
DAV:   5    -0.263826697735E+02   -0.14970E+00   -0.14933E+00 66228   0.600E+00
RMM:   6    -0.263869993548E+02   -0.43296E-02   -0.43296E-02 67678   0.101E+00
RMM:   7    -0.263870920973E+02   -0.92742E-04   -0.29806E-03 87125   0.215E-01
RMM:   8    -0.263870909508E+02    0.11466E-05   -0.99696E-05 56350   0.283E-02
   1 F= -.26387091E+02 E0= -.26387091E+02  d E =-.854148E-16  mag=    -0.0000
 writing wavefunctions
