 vasp.5.3.3 18Dez12 (build Jun 24 2015 15:58:02) complex                        
  
 executed on             LinuxIFC date 2023.04.24  07:38:45
 running on   32 total cores
 distrk:  each k-point on   32 cores,    1 groups
 distr:  one band on NCORES_PER_BAND=   1 cores,   32 groups


--------------------------------------------------------------------------------------------------------


 INCAR:
 POTCAR:    PAW_PBE Zn 06Sep2000                  
 POTCAR:    PAW_PBE S 06Sep2000                   

 ----------------------------------------------------------------------------- 
|                                                                             |
|           W    W    AA    RRRRR   N    N  II  N    N   GGGG   !!!           |
|           W    W   A  A   R    R  NN   N  II  NN   N  G    G  !!!           |
|           W    W  A    A  R    R  N N  N  II  N N  N  G       !!!           |
|           W WW W  AAAAAA  RRRRR   N  N N  II  N  N N  G  GGG   !            |
|           WW  WW  A    A  R   R   N   NN  II  N   NN  G    G                |
|           W    W  A    A  R    R  N    N  II  N    N   GGGG   !!!           |
|                                                                             |
|      For optimal performance we recommend that you set                      |
|        NPAR = 4 - approx SQRT( number of cores)                             |
|      (number of cores/NPAR must be integer)                                 |
|      This setting will greatly improve the performance of VASP for DFT.     |
|      The default NPAR=number of cores might be grossly inefficient          |
|      on modern multi-core architectures or massively parallel machines.     |
|      Do your own testing.                                                   |
|      Unfortunately you need to use the default for hybrid, GW and RPA       |
|      calculations.                                                          |
|                                                                             |
 ----------------------------------------------------------------------------- 

 POTCAR:    PAW_PBE Zn 06Sep2000                  
   VRHFIN =Zn: d10 p2                                                           
   LEXCH  = PE                                                                  
   EATOM  =  1748.8345 eV,  128.5357 Ry                                         
                                                                                
   TITEL  = PAW_PBE Zn 06Sep2000                                                
   LULTRA =        F    use ultrasoft PP ?                                      
   IUNSCR =        1    unscreen: 0-lin 1-nonlin 2-no                           
   RPACOR =    2.000    partial core radius                                     
   POMASS =   65.390; ZVAL   =   12.000    mass and valenz                      
   RCORE  =    2.300    outmost cutoff radius                                   
   RWIGS  =    2.400; RWIGS  =    1.270    wigner-seitz radius (au A)           
   ENMAX  =  276.723; ENMIN  =  207.542 eV                                      
   RCLOC  =    1.828    cutoff for local pot                                    
   LCOR   =        T    correct aug charges                                     
   LPAW   =        T    paw PP                                                  
   EAUG   =  575.892                                                            
   DEXC   =    0.000                                                            
   RMAX   =    2.347    core radius for proj-oper                               
   RAUG   =    1.300    factor for augmentation sphere                          
   RDEP   =    2.324    radius for radial grids                                 
   RDEPT  =    1.788    core radius for aug-charge                              
                                                                                
   Atomic configuration                                                         
    9 entries                                                                   
     n  l   j            E        occ.                                          
     1  0  0.50     -9524.6913   2.0000                                         
     2  0  0.50     -1158.1882   2.0000                                         
     2  1  1.50     -1003.8506   6.0000                                         
     3  0  0.50      -129.2194   2.0000                                         
     3  1  1.50       -83.3890   6.0000                                         
     3  2  2.50       -10.1410  10.0000                                         
     4  0  0.50        -5.9785   2.0000                                         
     4  1  0.50        -4.0817   0.0000                                         
     4  3  2.50        -1.3606   0.0000                                         
   Description                                                                  
     l       E           TYP  RCUT    TYP  RCUT                                 
     2    -10.1410010     23  2.300                                             
     2    -11.5015836     23  2.300                                             
     0     -5.9785163     23  2.300                                             
     0      1.1858015     23  2.300                                             
     1     -2.7211652     23  2.300                                             
     1     13.2444212     23  2.300                                             
  local pseudopotential read in
  partial core-charges read in
  partial kinetic energy density read in
  atomic valenz-charges read in
  non local Contribution for L=           2  read in
    real space projection operators read in
  non local Contribution for L=           2  read in
    real space projection operators read in
  non local Contribution for L=           0  read in
    real space projection operators read in
  non local Contribution for L=           0  read in
    real space projection operators read in
  non local Contribution for L=           1  read in
    real space projection operators read in
  non local Contribution for L=           1  read in
    real space projection operators read in
    PAW grid and wavefunctions read in
 
   number of l-projection  operators is LMAX  =           6
   number of lm-projection operators is LMMAX =          18
 
 POTCAR:    PAW_PBE S 06Sep2000                   
   VRHFIN =S : s2p4                                                             
   LEXCH  = PE                                                                  
   EATOM  =   276.8230 eV,   20.3459 Ry                                         
                                                                                
   TITEL  = PAW_PBE S 06Sep2000                                                 
   LULTRA =        F    use ultrasoft PP ?                                      
   IUNSCR =        1    unscreen: 0-lin 1-nonlin 2-no                           
   RPACOR =    1.500    partial core radius                                     
   POMASS =   32.066; ZVAL   =    6.000    mass and valenz                      
   RCORE  =    1.900    outmost cutoff radius                                   
   RWIGS  =    2.200; RWIGS  =    1.164    wigner-seitz radius (au A)           
   ENMAX  =  258.689; ENMIN  =  194.016 eV                                      
   ICORE  =        2    local potential                                         
   LCOR   =        T    correct aug charges                                     
   LPAW   =        T    paw PP                                                  
   EAUG   =  335.092                                                            
   DEXC   =    0.000                                                            
   RMAX   =    1.942    core radius for proj-oper                               
   RAUG   =    1.300    factor for augmentation sphere                          
   RDEP   =    1.954    radius for radial grids                                 
   RDEPT  =    1.744    core radius for aug-charge                              
                                                                                
   Atomic configuration                                                         
    6 entries                                                                   
     n  l   j            E        occ.                                          
     1  0  0.50     -2405.8406   2.0000                                         
     2  0  0.50      -211.7007   2.0000                                         
     2  1  1.50      -156.4958   6.0000                                         
     3  0  0.50       -17.2562   2.0000                                         
     3  1  0.50        -7.0085   4.0000                                         
     3  2  1.50        -6.8029   0.0000                                         
   Description                                                                  
     l       E           TYP  RCUT    TYP  RCUT                                 
     0    -17.2561641     23  1.900                                             
     0    -15.8743224     23  1.900                                             
     1     -7.0085400     23  1.900                                             
     1     -2.7779785     23  1.900                                             
     2     -6.8029130     23  1.900                                             
  local pseudopotential read in
  partial core-charges read in
  partial kinetic energy density read in
  atomic valenz-charges read in
  non local Contribution for L=           0  read in
    real space projection operators read in
  non local Contribution for L=           0  read in
    real space projection operators read in
  non local Contribution for L=           1  read in
    real space projection operators read in
  non local Contribution for L=           1  read in
    real space projection operators read in
    PAW grid and wavefunctions read in
 
   number of l-projection  operators is LMAX  =           4
   number of lm-projection operators is LMMAX =           8
 
  PAW_PBE Zn 06Sep2000                  :
 energy of atom  1       EATOM=-1748.8345
 kinetic energy error for atom=    0.0029 (will be added to EATOM!!)
  PAW_PBE S 06Sep2000                   :
 energy of atom  2       EATOM= -276.8230
 kinetic energy error for atom=    0.0020 (will be added to EATOM!!)
 
 
 POSCAR: Zn4 S4                                  
  positions in direct lattice
  No initial velocities read in
 exchange correlation table for  LEXCH =        8
   RHO(1)=    0.500       N(1)  =     2000
   RHO(2)=  100.500       N(2)  =     4000
 


--------------------------------------------------------------------------------------------------------


 ion  position               nearest neighbor table
   1  0.000  0.000  0.000-   5 2.33   7 2.33   8 2.33   6 2.33
   2  0.000  0.500  0.500-   6 2.33   7 2.33   8 2.33   5 2.33
   3  0.500  0.000  0.500-   5 2.33   6 2.33   7 2.33   8 2.33
   4  0.500  0.500  0.000-   5 2.33   6 2.33   8 2.33   7 2.33
   5  0.250  0.750  0.750-   1 2.33   3 2.33   4 2.33   2 2.33
   6  0.250  0.250  0.250-   2 2.33   3 2.33   4 2.33   1 2.33
   7  0.750  0.750  0.250-   1 2.33   2 2.33   3 2.33   4 2.33
   8  0.750  0.250  0.750-   1 2.33   2 2.33   4 2.33   3 2.33
 
  LATTYP: Found a simple cubic cell.
 ALAT       =     5.3873657546
  
  Lattice vectors:
  
 A1 = (   5.3873657546,   0.0000000000,   0.0000000000)
 A2 = (   0.0000000000,   5.3873657546,   0.0000000000)
 A3 = (   0.0000000000,   0.0000000000,   5.3873657546)


Analysis of symmetry for initial positions (statically):
=====================================================================
 Subroutine PRICEL returns following result:
 
  LATTYP: Found a face centered cubic cell.
 ALAT       =     5.3873657546
  
  Lattice vectors:
  
 A1 = (   2.6936828773,   2.6936828773,   0.0000000000)
 A2 = (   2.6936828773,   0.0000000000,  -2.6936828773)
 A3 = (   0.0000000000,   2.6936828773,  -2.6936828773)
 
   4 primitive cells build up your supercell.
 

 Routine SETGRP: Setting up the symmetry group for a 
 simple cubic supercell.


 Subroutine GETGRP returns: Found 24 space group operations
 (whereof 24 operations were pure point group operations)
 out of a pool of 48 trial point group operations.


The static configuration has the point symmetry T_d .


Analysis of symmetry for dynamics (positions and initial velocities):
=====================================================================
 Subroutine PRICEL returns following result:
 
  LATTYP: Found a face centered cubic cell.
 ALAT       =     5.3873657546
  
  Lattice vectors:
  
 A1 = (   2.6936828773,   2.6936828773,   0.0000000000)
 A2 = (   2.6936828773,   0.0000000000,  -2.6936828773)
 A3 = (   0.0000000000,   2.6936828773,  -2.6936828773)
 
   4 primitive cells build up your supercell.
 

 Routine SETGRP: Setting up the symmetry group for a 
 simple cubic supercell.


 Subroutine GETGRP returns: Found 24 space group operations
 (whereof 24 operations were pure point group operations)
 out of a pool of 48 trial point group operations.


The dynamic configuration has the point symmetry T_d .


Analysis of magnetic symmetry:
=====================================================================

 Subroutine MAGSYM returns: Found 24 space group operations
 (whereof 24 operations were pure point group operations)
 out of a pool of 24 trial space group operations
 (whereof 24 operations were pure point group operations)
 and found also     4 'primitive' translations


The magnetic configuration has the point symmetry T_d .


 irot  :   1
 --------------------------------------------------------------------
 isymop:   1   0   0
           0   1   0
           0   0   1

 gtrans:     0.0000000     0.0000000     0.0000000

 ptrans:     0.0000000     0.0000000     0.0000000
 rotmap:
 (   1->   1)  (   2->   2)  (   3->   3)  (   4->   4)  (   5->   5) 
 (   6->   6)  (   7->   7)  (   8->   8) 

 ptrans:     0.5000000     0.5000000     0.0000000
 rotmap:
 (   1->   4)  (   2->   3)  (   3->   2)  (   4->   1)  (   5->   8) 
 (   6->   7)  (   7->   6)  (   8->   5) 

 ptrans:     0.5000000     0.0000000     0.5000000
 rotmap:
 (   1->   3)  (   2->   4)  (   3->   1)  (   4->   2)  (   5->   7) 
 (   6->   8)  (   7->   5)  (   8->   6) 

 ptrans:     0.0000000     0.5000000     0.5000000
 rotmap:
 (   1->   2)  (   2->   1)  (   3->   4)  (   4->   3)  (   5->   6) 
 (   6->   5)  (   7->   8)  (   8->   7) 


 irot  :   2
 --------------------------------------------------------------------
 isymop:   0   0   1
           1   0   0
           0   1   0

 gtrans:     0.0000000     0.0000000     0.0000000

 ptrans:     0.0000000     0.0000000     0.0000000
 rotmap:
 (   1->   1)  (   2->   3)  (   3->   4)  (   4->   2)  (   5->   8) 
 (   6->   6)  (   7->   5)  (   8->   7) 

 ptrans:     0.5000000     0.5000000     0.0000000
 rotmap:
 (   1->   4)  (   2->   2)  (   3->   1)  (   4->   3)  (   5->   5) 
 (   6->   7)  (   7->   8)  (   8->   6) 

 ptrans:     0.5000000     0.0000000     0.5000000
 rotmap:
 (   1->   3)  (   2->   1)  (   3->   2)  (   4->   4)  (   5->   6) 
 (   6->   8)  (   7->   7)  (   8->   5) 

 ptrans:     0.0000000     0.5000000     0.5000000
 rotmap:
 (   1->   2)  (   2->   4)  (   3->   3)  (   4->   1)  (   5->   7) 
 (   6->   5)  (   7->   6)  (   8->   8) 


 irot  :   3
 --------------------------------------------------------------------
 isymop:   0   1   0
           0   0   1
           1   0   0

 gtrans:     0.0000000     0.0000000     0.0000000

 ptrans:     0.0000000     0.0000000     0.0000000
 rotmap:
 (   1->   1)  (   2->   4)  (   3->   2)  (   4->   3)  (   5->   7) 
 (   6->   6)  (   7->   8)  (   8->   5) 

 ptrans:     0.5000000     0.5000000     0.0000000
 rotmap:
 (   1->   4)  (   2->   1)  (   3->   3)  (   4->   2)  (   5->   6) 
 (   6->   7)  (   7->   5)  (   8->   8) 

 ptrans:     0.5000000     0.0000000     0.5000000
 rotmap:
 (   1->   3)  (   2->   2)  (   3->   4)  (   4->   1)  (   5->   5) 
 (   6->   8)  (   7->   6)  (   8->   7) 

 ptrans:     0.0000000     0.5000000     0.5000000
 rotmap:
 (   1->   2)  (   2->   3)  (   3->   1)  (   4->   4)  (   5->   8) 
 (   6->   5)  (   7->   7)  (   8->   6) 


 irot  :   4
 --------------------------------------------------------------------
 isymop:   0   1   0
          -1   0   0
           0   0  -1

 gtrans:     0.0000000     0.0000000     0.0000000

 ptrans:     0.0000000     0.0000000     0.0000000
 rotmap:
 (   1->   1)  (   2->   3)  (   3->   2)  (   4->   4)  (   5->   7) 
 (   6->   5)  (   7->   8)  (   8->   6) 

 ptrans:     0.5000000     0.5000000     0.0000000
 rotmap:
 (   1->   4)  (   2->   2)  (   3->   3)  (   4->   1)  (   5->   6) 
 (   6->   8)  (   7->   5)  (   8->   7) 

 ptrans:     0.5000000     0.0000000     0.5000000
 rotmap:
 (   1->   3)  (   2->   1)  (   3->   4)  (   4->   2)  (   5->   5) 
 (   6->   7)  (   7->   6)  (   8->   8) 

 ptrans:     0.0000000     0.5000000     0.5000000
 rotmap:
 (   1->   2)  (   2->   4)  (   3->   1)  (   4->   3)  (   5->   8) 
 (   6->   6)  (   7->   7)  (   8->   5) 


 irot  :   5
 --------------------------------------------------------------------
 isymop:   1   0   0
           0   0  -1
           0  -1   0

 gtrans:     0.0000000     0.0000000     0.0000000

 ptrans:     0.0000000     0.0000000     0.0000000
 rotmap:
 (   1->   1)  (   2->   2)  (   3->   4)  (   4->   3)  (   5->   6) 
 (   6->   5)  (   7->   7)  (   8->   8) 

 ptrans:     0.5000000     0.5000000     0.0000000
 rotmap:
 (   1->   4)  (   2->   3)  (   3->   1)  (   4->   2)  (   5->   7) 
 (   6->   8)  (   7->   6)  (   8->   5) 

 ptrans:     0.5000000     0.0000000     0.5000000
 rotmap:
 (   1->   3)  (   2->   4)  (   3->   2)  (   4->   1)  (   5->   8) 
 (   6->   7)  (   7->   5)  (   8->   6) 

 ptrans:     0.0000000     0.5000000     0.5000000
 rotmap:
 (   1->   2)  (   2->   1)  (   3->   3)  (   4->   4)  (   5->   5) 
 (   6->   6)  (   7->   8)  (   8->   7) 


 irot  :   6
 --------------------------------------------------------------------
 isymop:   0   0   1
           0  -1   0
          -1   0   0

 gtrans:     0.0000000     0.0000000     0.0000000

 ptrans:     0.0000000     0.0000000     0.0000000
 rotmap:
 (   1->   1)  (   2->   4)  (   3->   3)  (   4->   2)  (   5->   8) 
 (   6->   5)  (   7->   6)  (   8->   7) 

 ptrans:     0.5000000     0.5000000     0.0000000
 rotmap:
 (   1->   4)  (   2->   1)  (   3->   2)  (   4->   3)  (   5->   5) 
 (   6->   8)  (   7->   7)  (   8->   6) 

 ptrans:     0.5000000     0.0000000     0.5000000
 rotmap:
 (   1->   3)  (   2->   2)  (   3->   1)  (   4->   4)  (   5->   6) 
 (   6->   7)  (   7->   8)  (   8->   5) 

 ptrans:     0.0000000     0.5000000     0.5000000
 rotmap:
 (   1->   2)  (   2->   3)  (   3->   4)  (   4->   1)  (   5->   7) 
 (   6->   6)  (   7->   5)  (   8->   8) 


 irot  :   7
 --------------------------------------------------------------------
 isymop:  -1   0   0
           0  -1   0
           0   0   1

 gtrans:     0.0000000     0.0000000     0.0000000

 ptrans:     0.0000000     0.0000000     0.0000000
 rotmap:
 (   1->   1)  (   2->   2)  (   3->   3)  (   4->   4)  (   5->   8) 
 (   6->   7)  (   7->   6)  (   8->   5) 

 ptrans:     0.5000000     0.5000000     0.0000000
 rotmap:
 (   1->   4)  (   2->   3)  (   3->   2)  (   4->   1)  (   5->   5) 
 (   6->   6)  (   7->   7)  (   8->   8) 

 ptrans:     0.5000000     0.0000000     0.5000000
 rotmap:
 (   1->   3)  (   2->   4)  (   3->   1)  (   4->   2)  (   5->   6) 
 (   6->   5)  (   7->   8)  (   8->   7) 

 ptrans:     0.0000000     0.5000000     0.5000000
 rotmap:
 (   1->   2)  (   2->   1)  (   3->   4)  (   4->   3)  (   5->   7) 
 (   6->   8)  (   7->   5)  (   8->   6) 


 irot  :   8
 --------------------------------------------------------------------
 isymop:   0   0  -1
          -1   0   0
           0   1   0

 gtrans:     0.0000000     0.0000000     0.0000000

 ptrans:     0.0000000     0.0000000     0.0000000
 rotmap:
 (   1->   1)  (   2->   3)  (   3->   4)  (   4->   2)  (   5->   5) 
 (   6->   7)  (   7->   8)  (   8->   6) 

 ptrans:     0.5000000     0.5000000     0.0000000
 rotmap:
 (   1->   4)  (   2->   2)  (   3->   1)  (   4->   3)  (   5->   8) 
 (   6->   6)  (   7->   5)  (   8->   7) 

 ptrans:     0.5000000     0.0000000     0.5000000
 rotmap:
 (   1->   3)  (   2->   1)  (   3->   2)  (   4->   4)  (   5->   7) 
 (   6->   5)  (   7->   6)  (   8->   8) 

 ptrans:     0.0000000     0.5000000     0.5000000
 rotmap:
 (   1->   2)  (   2->   4)  (   3->   3)  (   4->   1)  (   5->   6) 
 (   6->   8)  (   7->   7)  (   8->   5) 


 irot  :   9
 --------------------------------------------------------------------
 isymop:   0  -1   0
           0   0  -1
           1   0   0

 gtrans:     0.0000000     0.0000000     0.0000000

 ptrans:     0.0000000     0.0000000     0.0000000
 rotmap:
 (   1->   1)  (   2->   4)  (   3->   2)  (   4->   3)  (   5->   6) 
 (   6->   7)  (   7->   5)  (   8->   8) 

 ptrans:     0.5000000     0.5000000     0.0000000
 rotmap:
 (   1->   4)  (   2->   1)  (   3->   3)  (   4->   2)  (   5->   7) 
 (   6->   6)  (   7->   8)  (   8->   5) 

 ptrans:     0.5000000     0.0000000     0.5000000
 rotmap:
 (   1->   3)  (   2->   2)  (   3->   4)  (   4->   1)  (   5->   8) 
 (   6->   5)  (   7->   7)  (   8->   6) 

 ptrans:     0.0000000     0.5000000     0.5000000
 rotmap:
 (   1->   2)  (   2->   3)  (   3->   1)  (   4->   4)  (   5->   5) 
 (   6->   8)  (   7->   6)  (   8->   7) 


 irot  :  10
 --------------------------------------------------------------------
 isymop:   0  -1   0
           1   0   0
           0   0  -1

 gtrans:     0.0000000     0.0000000     0.0000000

 ptrans:     0.0000000     0.0000000     0.0000000
 rotmap:
 (   1->   1)  (   2->   3)  (   3->   2)  (   4->   4)  (   5->   6) 
 (   6->   8)  (   7->   5)  (   8->   7) 

 ptrans:     0.5000000     0.5000000     0.0000000
 rotmap:
 (   1->   4)  (   2->   2)  (   3->   3)  (   4->   1)  (   5->   7) 
 (   6->   5)  (   7->   8)  (   8->   6) 

 ptrans:     0.5000000     0.0000000     0.5000000
 rotmap:
 (   1->   3)  (   2->   1)  (   3->   4)  (   4->   2)  (   5->   8) 
 (   6->   6)  (   7->   7)  (   8->   5) 

 ptrans:     0.0000000     0.5000000     0.5000000
 rotmap:
 (   1->   2)  (   2->   4)  (   3->   1)  (   4->   3)  (   5->   5) 
 (   6->   7)  (   7->   6)  (   8->   8) 


 irot  :  11
 --------------------------------------------------------------------
 isymop:  -1   0   0
           0   0   1
           0  -1   0

 gtrans:     0.0000000     0.0000000     0.0000000

 ptrans:     0.0000000     0.0000000     0.0000000
 rotmap:
 (   1->   1)  (   2->   2)  (   3->   4)  (   4->   3)  (   5->   7) 
 (   6->   8)  (   7->   6)  (   8->   5) 

 ptrans:     0.5000000     0.5000000     0.0000000
 rotmap:
 (   1->   4)  (   2->   3)  (   3->   1)  (   4->   2)  (   5->   6) 
 (   6->   5)  (   7->   7)  (   8->   8) 

 ptrans:     0.5000000     0.0000000     0.5000000
 rotmap:
 (   1->   3)  (   2->   4)  (   3->   2)  (   4->   1)  (   5->   5) 
 (   6->   6)  (   7->   8)  (   8->   7) 

 ptrans:     0.0000000     0.5000000     0.5000000
 rotmap:
 (   1->   2)  (   2->   1)  (   3->   3)  (   4->   4)  (   5->   8) 
 (   6->   7)  (   7->   5)  (   8->   6) 


 irot  :  12
 --------------------------------------------------------------------
 isymop:   0   0  -1
           0   1   0
          -1   0   0

 gtrans:     0.0000000     0.0000000     0.0000000

 ptrans:     0.0000000     0.0000000     0.0000000
 rotmap:
 (   1->   1)  (   2->   4)  (   3->   3)  (   4->   2)  (   5->   5) 
 (   6->   8)  (   7->   7)  (   8->   6) 

 ptrans:     0.5000000     0.5000000     0.0000000
 rotmap:
 (   1->   4)  (   2->   1)  (   3->   2)  (   4->   3)  (   5->   8) 
 (   6->   5)  (   7->   6)  (   8->   7) 

 ptrans:     0.5000000     0.0000000     0.5000000
 rotmap:
 (   1->   3)  (   2->   2)  (   3->   1)  (   4->   4)  (   5->   7) 
 (   6->   6)  (   7->   5)  (   8->   8) 

 ptrans:     0.0000000     0.5000000     0.5000000
 rotmap:
 (   1->   2)  (   2->   3)  (   3->   4)  (   4->   1)  (   5->   6) 
 (   6->   7)  (   7->   8)  (   8->   5) 


 irot  :  13
 --------------------------------------------------------------------
 isymop:   0   0   1
          -1   0   0
           0  -1   0

 gtrans:     0.0000000     0.0000000     0.0000000

 ptrans:     0.0000000     0.0000000     0.0000000
 rotmap:
 (   1->   1)  (   2->   3)  (   3->   4)  (   4->   2)  (   5->   7) 
 (   6->   5)  (   7->   6)  (   8->   8) 

 ptrans:     0.5000000     0.5000000     0.0000000
 rotmap:
 (   1->   4)  (   2->   2)  (   3->   1)  (   4->   3)  (   5->   6) 
 (   6->   8)  (   7->   7)  (   8->   5) 

 ptrans:     0.5000000     0.0000000     0.5000000
 rotmap:
 (   1->   3)  (   2->   1)  (   3->   2)  (   4->   4)  (   5->   5) 
 (   6->   7)  (   7->   8)  (   8->   6) 

 ptrans:     0.0000000     0.5000000     0.5000000
 rotmap:
 (   1->   2)  (   2->   4)  (   3->   3)  (   4->   1)  (   5->   8) 
 (   6->   6)  (   7->   5)  (   8->   7) 


 irot  :  14
 --------------------------------------------------------------------
 isymop:   0   1   0
           0   0  -1
          -1   0   0

 gtrans:     0.0000000     0.0000000     0.0000000

 ptrans:     0.0000000     0.0000000     0.0000000
 rotmap:
 (   1->   1)  (   2->   4)  (   3->   2)  (   4->   3)  (   5->   8) 
 (   6->   5)  (   7->   7)  (   8->   6) 

 ptrans:     0.5000000     0.5000000     0.0000000
 rotmap:
 (   1->   4)  (   2->   1)  (   3->   3)  (   4->   2)  (   5->   5) 
 (   6->   8)  (   7->   6)  (   8->   7) 

 ptrans:     0.5000000     0.0000000     0.5000000
 rotmap:
 (   1->   3)  (   2->   2)  (   3->   4)  (   4->   1)  (   5->   6) 
 (   6->   7)  (   7->   5)  (   8->   8) 

 ptrans:     0.0000000     0.5000000     0.5000000
 rotmap:
 (   1->   2)  (   2->   3)  (   3->   1)  (   4->   4)  (   5->   7) 
 (   6->   6)  (   7->   8)  (   8->   5) 


 irot  :  15
 --------------------------------------------------------------------
 isymop:   1   0   0
           0  -1   0
           0   0  -1

 gtrans:     0.0000000     0.0000000     0.0000000

 ptrans:     0.0000000     0.0000000     0.0000000
 rotmap:
 (   1->   1)  (   2->   2)  (   3->   3)  (   4->   4)  (   5->   6) 
 (   6->   5)  (   7->   8)  (   8->   7) 

 ptrans:     0.5000000     0.5000000     0.0000000
 rotmap:
 (   1->   4)  (   2->   3)  (   3->   2)  (   4->   1)  (   5->   7) 
 (   6->   8)  (   7->   5)  (   8->   6) 

 ptrans:     0.5000000     0.0000000     0.5000000
 rotmap:
 (   1->   3)  (   2->   4)  (   3->   1)  (   4->   2)  (   5->   8) 
 (   6->   7)  (   7->   6)  (   8->   5) 

 ptrans:     0.0000000     0.5000000     0.5000000
 rotmap:
 (   1->   2)  (   2->   1)  (   3->   4)  (   4->   3)  (   5->   5) 
 (   6->   6)  (   7->   7)  (   8->   8) 


 irot  :  16
 --------------------------------------------------------------------
 isymop:   0   0  -1
           0  -1   0
           1   0   0

 gtrans:     0.0000000     0.0000000     0.0000000

 ptrans:     0.0000000     0.0000000     0.0000000
 rotmap:
 (   1->   1)  (   2->   4)  (   3->   3)  (   4->   2)  (   5->   6) 
 (   6->   7)  (   7->   8)  (   8->   5) 

 ptrans:     0.5000000     0.5000000     0.0000000
 rotmap:
 (   1->   4)  (   2->   1)  (   3->   2)  (   4->   3)  (   5->   7) 
 (   6->   6)  (   7->   5)  (   8->   8) 

 ptrans:     0.5000000     0.0000000     0.5000000
 rotmap:
 (   1->   3)  (   2->   2)  (   3->   1)  (   4->   4)  (   5->   8) 
 (   6->   5)  (   7->   6)  (   8->   7) 

 ptrans:     0.0000000     0.5000000     0.5000000
 rotmap:
 (   1->   2)  (   2->   3)  (   3->   4)  (   4->   1)  (   5->   5) 
 (   6->   8)  (   7->   7)  (   8->   6) 


 irot  :  17
 --------------------------------------------------------------------
 isymop:   0  -1   0
          -1   0   0
           0   0   1

 gtrans:     0.0000000     0.0000000     0.0000000

 ptrans:     0.0000000     0.0000000     0.0000000
 rotmap:
 (   1->   1)  (   2->   3)  (   3->   2)  (   4->   4)  (   5->   5) 
 (   6->   7)  (   7->   6)  (   8->   8) 

 ptrans:     0.5000000     0.5000000     0.0000000
 rotmap:
 (   1->   4)  (   2->   2)  (   3->   3)  (   4->   1)  (   5->   8) 
 (   6->   6)  (   7->   7)  (   8->   5) 

 ptrans:     0.5000000     0.0000000     0.5000000
 rotmap:
 (   1->   3)  (   2->   1)  (   3->   4)  (   4->   2)  (   5->   7) 
 (   6->   5)  (   7->   8)  (   8->   6) 

 ptrans:     0.0000000     0.5000000     0.5000000
 rotmap:
 (   1->   2)  (   2->   4)  (   3->   1)  (   4->   3)  (   5->   6) 
 (   6->   8)  (   7->   5)  (   8->   7) 


 irot  :  18
 --------------------------------------------------------------------
 isymop:  -1   0   0
           0   0  -1
           0   1   0

 gtrans:     0.0000000     0.0000000     0.0000000

 ptrans:     0.0000000     0.0000000     0.0000000
 rotmap:
 (   1->   1)  (   2->   2)  (   3->   4)  (   4->   3)  (   5->   8) 
 (   6->   7)  (   7->   5)  (   8->   6) 

 ptrans:     0.5000000     0.5000000     0.0000000
 rotmap:
 (   1->   4)  (   2->   3)  (   3->   1)  (   4->   2)  (   5->   5) 
 (   6->   6)  (   7->   8)  (   8->   7) 

 ptrans:     0.5000000     0.0000000     0.5000000
 rotmap:
 (   1->   3)  (   2->   4)  (   3->   2)  (   4->   1)  (   5->   6) 
 (   6->   5)  (   7->   7)  (   8->   8) 

 ptrans:     0.0000000     0.5000000     0.5000000
 rotmap:
 (   1->   2)  (   2->   1)  (   3->   3)  (   4->   4)  (   5->   7) 
 (   6->   8)  (   7->   6)  (   8->   5) 


 irot  :  19
 --------------------------------------------------------------------
 isymop:   0  -1   0
           0   0   1
          -1   0   0

 gtrans:     0.0000000     0.0000000     0.0000000

 ptrans:     0.0000000     0.0000000     0.0000000
 rotmap:
 (   1->   1)  (   2->   4)  (   3->   2)  (   4->   3)  (   5->   5) 
 (   6->   8)  (   7->   6)  (   8->   7) 

 ptrans:     0.5000000     0.5000000     0.0000000
 rotmap:
 (   1->   4)  (   2->   1)  (   3->   3)  (   4->   2)  (   5->   8) 
 (   6->   5)  (   7->   7)  (   8->   6) 

 ptrans:     0.5000000     0.0000000     0.5000000
 rotmap:
 (   1->   3)  (   2->   2)  (   3->   4)  (   4->   1)  (   5->   7) 
 (   6->   6)  (   7->   8)  (   8->   5) 

 ptrans:     0.0000000     0.5000000     0.5000000
 rotmap:
 (   1->   2)  (   2->   3)  (   3->   1)  (   4->   4)  (   5->   6) 
 (   6->   7)  (   7->   5)  (   8->   8) 


 irot  :  20
 --------------------------------------------------------------------
 isymop:  -1   0   0
           0   1   0
           0   0  -1

 gtrans:     0.0000000     0.0000000     0.0000000

 ptrans:     0.0000000     0.0000000     0.0000000
 rotmap:
 (   1->   1)  (   2->   2)  (   3->   3)  (   4->   4)  (   5->   7) 
 (   6->   8)  (   7->   5)  (   8->   6) 

 ptrans:     0.5000000     0.5000000     0.0000000
 rotmap:
 (   1->   4)  (   2->   3)  (   3->   2)  (   4->   1)  (   5->   6) 
 (   6->   5)  (   7->   8)  (   8->   7) 

 ptrans:     0.5000000     0.0000000     0.5000000
 rotmap:
 (   1->   3)  (   2->   4)  (   3->   1)  (   4->   2)  (   5->   5) 
 (   6->   6)  (   7->   7)  (   8->   8) 

 ptrans:     0.0000000     0.5000000     0.5000000
 rotmap:
 (   1->   2)  (   2->   1)  (   3->   4)  (   4->   3)  (   5->   8) 
 (   6->   7)  (   7->   6)  (   8->   5) 


 irot  :  21
 --------------------------------------------------------------------
 isymop:   0   0  -1
           1   0   0
           0  -1   0

 gtrans:     0.0000000     0.0000000     0.0000000

 ptrans:     0.0000000     0.0000000     0.0000000
 rotmap:
 (   1->   1)  (   2->   3)  (   3->   4)  (   4->   2)  (   5->   6) 
 (   6->   8)  (   7->   7)  (   8->   5) 

 ptrans:     0.5000000     0.5000000     0.0000000
 rotmap:
 (   1->   4)  (   2->   2)  (   3->   1)  (   4->   3)  (   5->   7) 
 (   6->   5)  (   7->   6)  (   8->   8) 

 ptrans:     0.5000000     0.0000000     0.5000000
 rotmap:
 (   1->   3)  (   2->   1)  (   3->   2)  (   4->   4)  (   5->   8) 
 (   6->   6)  (   7->   5)  (   8->   7) 

 ptrans:     0.0000000     0.5000000     0.5000000
 rotmap:
 (   1->   2)  (   2->   4)  (   3->   3)  (   4->   1)  (   5->   5) 
 (   6->   7)  (   7->   8)  (   8->   6) 


 irot  :  22
 --------------------------------------------------------------------
 isymop:   1   0   0
           0   0   1
           0   1   0

 gtrans:     0.0000000     0.0000000     0.0000000

 ptrans:     0.0000000     0.0000000     0.0000000
 rotmap:
 (   1->   1)  (   2->   2)  (   3->   4)  (   4->   3)  (   5->   5) 
 (   6->   6)  (   7->   8)  (   8->   7) 

 ptrans:     0.5000000     0.5000000     0.0000000
 rotmap:
 (   1->   4)  (   2->   3)  (   3->   1)  (   4->   2)  (   5->   8) 
 (   6->   7)  (   7->   5)  (   8->   6) 

 ptrans:     0.5000000     0.0000000     0.5000000
 rotmap:
 (   1->   3)  (   2->   4)  (   3->   2)  (   4->   1)  (   5->   7) 
 (   6->   8)  (   7->   6)  (   8->   5) 

 ptrans:     0.0000000     0.5000000     0.5000000
 rotmap:
 (   1->   2)  (   2->   1)  (   3->   3)  (   4->   4)  (   5->   6) 
 (   6->   5)  (   7->   7)  (   8->   8) 


 irot  :  23
 --------------------------------------------------------------------
 isymop:   0   1   0
           1   0   0
           0   0   1

 gtrans:     0.0000000     0.0000000     0.0000000

 ptrans:     0.0000000     0.0000000     0.0000000
 rotmap:
 (   1->   1)  (   2->   3)  (   3->   2)  (   4->   4)  (   5->   8) 
 (   6->   6)  (   7->   7)  (   8->   5) 

 ptrans:     0.5000000     0.5000000     0.0000000
 rotmap:
 (   1->   4)  (   2->   2)  (   3->   3)  (   4->   1)  (   5->   5) 
 (   6->   7)  (   7->   6)  (   8->   8) 

 ptrans:     0.5000000     0.0000000     0.5000000
 rotmap:
 (   1->   3)  (   2->   1)  (   3->   4)  (   4->   2)  (   5->   6) 
 (   6->   8)  (   7->   5)  (   8->   7) 

 ptrans:     0.0000000     0.5000000     0.5000000
 rotmap:
 (   1->   2)  (   2->   4)  (   3->   1)  (   4->   3)  (   5->   7) 
 (   6->   5)  (   7->   8)  (   8->   6) 


 irot  :  24
 --------------------------------------------------------------------
 isymop:   0   0   1
           0   1   0
           1   0   0

 gtrans:     0.0000000     0.0000000     0.0000000

 ptrans:     0.0000000     0.0000000     0.0000000
 rotmap:
 (   1->   1)  (   2->   4)  (   3->   3)  (   4->   2)  (   5->   7) 
 (   6->   6)  (   7->   5)  (   8->   8) 

 ptrans:     0.5000000     0.5000000     0.0000000
 rotmap:
 (   1->   4)  (   2->   1)  (   3->   2)  (   4->   3)  (   5->   6) 
 (   6->   7)  (   7->   8)  (   8->   5) 

 ptrans:     0.5000000     0.0000000     0.5000000
 rotmap:
 (   1->   3)  (   2->   2)  (   3->   1)  (   4->   4)  (   5->   5) 
 (   6->   8)  (   7->   7)  (   8->   6) 

 ptrans:     0.0000000     0.5000000     0.5000000
 rotmap:
 (   1->   2)  (   2->   3)  (   3->   4)  (   4->   1)  (   5->   8) 
 (   6->   5)  (   7->   6)  (   8->   7) 
 
 
 KPOINTS: Automatic mesh                          

Automatic generation of k-mesh.
Space group operators:
 irot       det(A)        alpha          n_x          n_y          n_z        tau_x        tau_y        tau_z
    1     1.000000     0.000000     1.000000     0.000000     0.000000     0.000000     0.000000     0.000000
    2     1.000000   120.000000    -0.577350    -0.577350    -0.577350     0.000000     0.000000     0.000000
    3     1.000000   120.000000     0.577350     0.577350     0.577350     0.000000     0.000000     0.000000
    4    -1.000000    90.000000     0.000000     0.000000    -1.000000     0.000000     0.000000     0.000000
    5    -1.000000   180.000000     0.000000    -0.707107    -0.707107     0.000000     0.000000     0.000000
    6    -1.000000    90.000000     0.000000     1.000000     0.000000     0.000000     0.000000     0.000000
    7     1.000000   180.000000    -0.000000    -0.000000     1.000000     0.000000     0.000000     0.000000
    8     1.000000   120.000000    -0.577350     0.577350     0.577350     0.000000     0.000000     0.000000
    9     1.000000   120.000000    -0.577350     0.577350    -0.577350     0.000000     0.000000     0.000000
   10    -1.000000    90.000000    -0.000000    -0.000000     1.000000     0.000000     0.000000     0.000000
   11    -1.000000    90.000000    -1.000000     0.000000    -0.000000     0.000000     0.000000     0.000000
   12    -1.000000   180.000000    -0.707107     0.000000    -0.707107     0.000000     0.000000     0.000000
   13     1.000000   120.000000     0.577350    -0.577350     0.577350     0.000000     0.000000     0.000000
   14     1.000000   120.000000    -0.577350    -0.577350     0.577350     0.000000     0.000000     0.000000
   15     1.000000   180.000000     1.000000    -0.000000     0.000000     0.000000     0.000000     0.000000
   16    -1.000000    90.000000    -0.000000    -1.000000     0.000000     0.000000     0.000000     0.000000
   17    -1.000000   180.000000     0.707107     0.707107     0.000000     0.000000     0.000000     0.000000
   18    -1.000000    90.000000     1.000000    -0.000000    -0.000000     0.000000     0.000000     0.000000
   19     1.000000   120.000000     0.577350    -0.577350    -0.577350     0.000000     0.000000     0.000000
   20     1.000000   180.000000     0.000000     1.000000     0.000000     0.000000     0.000000     0.000000
   21     1.000000   120.000000     0.577350     0.577350    -0.577350     0.000000     0.000000     0.000000
   22    -1.000000   180.000000    -0.000000    -0.707107     0.707107     0.000000     0.000000     0.000000
   23    -1.000000   180.000000     0.707107    -0.707107     0.000000     0.000000     0.000000     0.000000
   24    -1.000000   180.000000     0.707107    -0.000000    -0.707107     0.000000     0.000000     0.000000
 
 Subroutine IBZKPT returns following result:
 ===========================================
 
 Found     35 irreducible k-points:
 
 Following reciprocal coordinates:
            Coordinates               Weight
  0.000000  0.000000  0.000000      1.000000
  0.125000  0.000000  0.000000      6.000000
  0.250000  0.000000  0.000000      6.000000
  0.375000  0.000000  0.000000      6.000000
  0.500000  0.000000  0.000000      3.000000
  0.125000  0.125000  0.000000     12.000000
  0.250000  0.125000  0.000000     24.000000
  0.375000  0.125000  0.000000     24.000000
  0.500000  0.125000  0.000000     12.000000
  0.250000  0.250000  0.000000     12.000000
  0.375000  0.250000  0.000000     24.000000
  0.500000  0.250000  0.000000     12.000000
  0.375000  0.375000  0.000000     12.000000
  0.500000  0.375000  0.000000     12.000000
  0.500000  0.500000  0.000000      3.000000
  0.125000  0.125000  0.125000      8.000000
  0.250000  0.125000  0.125000     24.000000
  0.375000  0.125000  0.125000     24.000000
  0.500000  0.125000  0.125000     12.000000
  0.250000  0.250000  0.125000     24.000000
  0.375000  0.250000  0.125000     48.000000
  0.500000  0.250000  0.125000     24.000000
  0.375000  0.375000  0.125000     24.000000
  0.500000  0.375000  0.125000     24.000000
  0.500000  0.500000  0.125000      6.000000
  0.250000  0.250000  0.250000      8.000000
  0.375000  0.250000  0.250000     24.000000
  0.500000  0.250000  0.250000     12.000000
  0.375000  0.375000  0.250000     24.000000
  0.500000  0.375000  0.250000     24.000000
  0.500000  0.500000  0.250000      6.000000
  0.375000  0.375000  0.375000      8.000000
  0.500000  0.375000  0.375000     12.000000
  0.500000  0.500000  0.375000      6.000000
  0.500000  0.500000  0.500000      1.000000
 
 Following cartesian coordinates:
            Coordinates               Weight
  0.000000  0.000000  0.000000      1.000000
  0.023202 -0.000000  0.000000      6.000000
  0.046405 -0.000000  0.000000      6.000000
  0.069607 -0.000000  0.000000      6.000000
  0.092810 -0.000000  0.000000      3.000000
  0.023202  0.023202  0.000000     12.000000
  0.046405  0.023202  0.000000     24.000000
  0.069607  0.023202  0.000000     24.000000
  0.092810  0.023202  0.000000     12.000000
  0.046405  0.046405  0.000000     12.000000
  0.069607  0.046405  0.000000     24.000000
  0.092810  0.046405  0.000000     12.000000
  0.069607  0.069607  0.000000     12.000000
  0.092810  0.069607  0.000000     12.000000
  0.092810  0.092810  0.000000      3.000000
  0.023202  0.023202  0.023202      8.000000
  0.046405  0.023202  0.023202     24.000000
  0.069607  0.023202  0.023202     24.000000
  0.092810  0.023202  0.023202     12.000000
  0.046405  0.046405  0.023202     24.000000
  0.069607  0.046405  0.023202     48.000000
  0.092810  0.046405  0.023202     24.000000
  0.069607  0.069607  0.023202     24.000000
  0.092810  0.069607  0.023202     24.000000
  0.092810  0.092810  0.023202      6.000000
  0.046405  0.046405  0.046405      8.000000
  0.069607  0.046405  0.046405     24.000000
  0.092810  0.046405  0.046405     12.000000
  0.069607  0.069607  0.046405     24.000000
  0.092810  0.069607  0.046405     24.000000
  0.092810  0.092810  0.046405      6.000000
  0.069607  0.069607  0.069607      8.000000
  0.092810  0.069607  0.069607     12.000000
  0.092810  0.092810  0.069607      6.000000
  0.092810  0.092810  0.092810      1.000000
 


--------------------------------------------------------------------------------------------------------




 Dimension of arrays:
   k-points           NKPTS =     35   k-points in BZ     NKDIM =     35   number of bands    NBANDS=     64
   number of dos      NEDOS =    301   number of ions     NIONS =      8
   non local maximal  LDIM  =      6   non local SUM 2l+1 LMDIM =     18
   total plane-waves  NPLWV =  64000
   max r-space proj   IRMAX =      1   max aug-charges    IRDMAX=  13093
   dimension x,y,z NGX =    40 NGY =   40 NGZ =   40
   dimension x,y,z NGXF=    80 NGYF=   80 NGZF=   80
   support grid    NGXF=    80 NGYF=   80 NGZF=   80
   ions per type =               4   4
 NGX,Y,Z   is equivalent  to a cutoff of  12.34, 12.34, 12.34 a.u.
 NGXF,Y,Z  is equivalent  to a cutoff of  24.69, 24.69, 24.69 a.u.


 I would recommend the setting:
   dimension x,y,z NGX =    39 NGY =   39 NGZ =   39
 SYSTEM =  ZnS (relax)                             
 POSCAR =  Zn4 S4                                  

 Startparameter for this run:
   NWRITE =      2    write-flag & timer
   PREC   = accura    normal or accurate (medium, high low for compatibility)
   ISTART =      0    job   : 0-new  1-cont  2-samecut
   ICHARG =      2    charge: 1-file 2-atom 10-const
   ISPIN  =      2    spin polarized calculation?
   LNONCOLLINEAR =      F non collinear calculations
   LSORBIT =      F    spin-orbit coupling
   INIWAV =      1    electr: 0-lowe 1-rand  2-diag
   LASPH  =      T    aspherical Exc in radial PAW
   METAGGA=      F    non-selfconsistent MetaGGA calc.

 Electronic Relaxation 1
   ENCUT  =  500.0 eV  36.75 Ry    6.06 a.u.   9.82  9.82  9.82*2*pi/ulx,y,z
   ENINI  =  500.0     initial cutoff
   ENAUG  =  575.9 eV  augmentation charge cutoff
   NELM   =    100;   NELMIN=  2; NELMDL= -5     # of ELM steps 
   EDIFF  = 0.1E-04   stopping-criterion for ELM
   LREAL  =      F    real-space projection
   NLSPLINE    = F    spline interpolate recip. space projectors
   LCOMPAT=      F    compatible to vasp.4.4
   GGA_COMPAT  = T    GGA compatible to vasp.4.4-vasp.4.6
   LMAXPAW     = -100 max onsite density
   LMAXMIX     =    2 max onsite mixed and CHGCAR
   VOSKOWN=      0    Vosko Wilk Nusair interpolation
   ROPT   =    0.00000   0.00000
 Ionic relaxation
   EDIFFG = -.1E-01   stopping-criterion for IOM
   NSW    =    200    number of steps for IOM
   NBLOCK =      1;   KBLOCK =    200    inner block; outer block 
   IBRION =      2    ionic relax: 0-MD 1-quasi-New 2-CG
   NFREE  =      1    steps in history (QN), initial steepest desc. (CG)
   ISIF   =      3    stress and relaxation
   IWAVPR =     11    prediction:  0-non 1-charg 2-wave 3-comb
   ISYM   =      2    0-nonsym 1-usesym 2-fastsym
   LCORR  =      T    Harris-Foulkes like correction to forces

   POTIM  = 0.5000    time-step for ionic-motion
   TEIN   =    0.0    initial temperature
   TEBEG  =    0.0;   TEEND  =   0.0 temperature during run
   SMASS  =  -3.00    Nose mass-parameter (am)
   estimated Nose-frequenzy (Omega)   =  0.10E-29 period in steps =****** mass=  -0.663E-27a.u.
   SCALEE = 1.0000    scale energy and forces
   NPACO  =    256;   APACO  = 16.0  distance and # of slots for P.C.
   PSTRESS=    0.0 pullay stress

  Mass of Ions in am
   POMASS =  65.39 32.07
  Ionic Valenz
   ZVAL   =  12.00  6.00
  Atomic Wigner-Seitz radii
   RWIGS  =  -1.00 -1.00
  virtual crystal weights 
   VCA    =   1.00  1.00
   NELECT =      72.0000    total number of electrons
   NUPDOWN=      -1.0000    fix difference up-down

 DOS related values:
   EMIN   =  10.00;   EMAX   =-10.00  energy-range for DOS
   EFERMI =   0.00
   ISMEAR =     0;   SIGMA  =   0.05  broadening in eV -4-tet -1-fermi 0-gaus

 Electronic relaxation 2 (details)
   IALGO  =     38    algorithm
   LDIAG  =      T    sub-space diagonalisation (order eigenvalues)
   LSUBROT=      T    optimize rotation matrix (better conditioning)
   TURBO    =      0    0=normal 1=particle mesh
   IRESTART =      0    0=no restart 2=restart with 2 vectors
   NREBOOT  =      0    no. of reboots
   NMIN     =      0    reboot dimension
   EREF     =   0.00    reference energy to select bands
   IMIX   =      4    mixing-type and parameters
     AMIX     =   0.40;   BMIX     =  1.00
     AMIX_MAG =   1.60;   BMIX_MAG =  1.00
     AMIN     =   0.10
     WC   =   100.;   INIMIX=   1;  MIXPRE=   1;  MAXMIX= -45

 Intra band minimization:
   WEIMIN = 0.0010     energy-eigenvalue tresh-hold
   EBREAK =  0.39E-07  absolut break condition
   DEPER  =   0.30     relativ break condition  

   TIME   =   0.40     timestep for ELM

  volume/ion in A,a.u.               =      19.55       131.90
  Fermi-wavevector in a.u.,A,eV,Ry     =   1.264181  2.388955 21.744194  1.598153
  Thomas-Fermi vector in A             =   2.397499
 
 Write flags
   LWAVE  =      T    write WAVECAR
   LCHARG =      T    write CHGCAR
   LVTOT  =      T    write LOCPOT, total local potential
   LVHAR  =      F    write LOCPOT, Hartree potential only
   LELF   =      T    write electronic localiz. function (ELF)
   LORBIT =     12    0 simple, 1 ext, 2 COOP (PROOUT)


 Dipole corrections
   LMONO  =      F    monopole corrections only (constant potential shift)
   LDIPOL =      F    correct potential (dipole corrections)
   IDIPOL =      0    1-x, 2-y, 3-z, 4-all directions 
   EPSILON=  1.0000000 bulk dielectric constant

 Exchange correlation treatment:
   GGA     =    --    GGA type
   LEXCH   =     8    internal setting for exchange type
   VOSKOWN=      0    Vosko Wilk Nusair interpolation
   LHFCALC =     F    Hartree Fock is set to
   LHFONE  =     F    Hartree Fock one center treatment
   AEXX    =    0.0000 exact exchange contribution

 Linear response parameters
   LEPSILON=     F    determine dielectric tensor
   LRPA    =     F    only Hartree local field effects (RPA)
   LNABLA  =     F    use nabla operator in PAW spheres
   LVEL    =     F    velocity operator in full k-point grid
   LINTERFAST=   F  fast interpolation
   KINTER  =     0    interpolate to denser k-point grid
   CSHIFT  =0.1000    complex shift for real part using Kramers Kronig
   OMEGAMAX=  -1.0    maximum frequency
   DEG_THRESHOLD= 0.2000000E-02 threshold for treating states as degnerate
   RTIME   =    0.100 relaxation time in fs

 Orbital magnetization related:
   ORBITALMAG=     F  switch on orbital magnetization
   LCHIMAG   =     F  perturbation theory with respect to B field
   DQ        =  0.001000  dq finite difference perturbation B field



--------------------------------------------------------------------------------------------------------


 conjugate gradient relaxation of ions
 charge density and potential will be updated during run
 spin polarized calculation
 Variant of blocked Davidson
 Davidson routine will perform the subspace rotation
 perform sub-space diagonalisation
    after iterative eigenvector-optimisation
 modified Broyden-mixing scheme, WC =      100.0
 initial mixing is a Kerker type mixing with AMIX =  0.4000 and BMIX =      1.0000
 Hartree-type preconditioning will be used
 using additional bands           28
 reciprocal scheme for non local part
 use partial core corrections
 calculate Harris-corrections to forces 
   (improved forces if not selfconsistent)
 use gradient corrections 
 use of overlap-Matrix (Vanderbilt PP)
 Gauss-broadening in eV      SIGMA  =   0.05


--------------------------------------------------------------------------------------------------------


  energy-cutoff  :      500.00
  volume of cell :      156.36
      direct lattice vectors                 reciprocal lattice vectors
     5.387365755  0.000000000  0.000000000     0.185619474 -0.000000000  0.000000000
     0.000000000  5.387365755  0.000000000     0.000000000  0.185619474  0.000000000
     0.000000000  0.000000000  5.387365755    -0.000000000 -0.000000000  0.185619474

  length of vectors
     5.387365755  5.387365755  5.387365755     0.185619474  0.185619474  0.185619474


 
 k-points in units of 2pi/SCALE and weight: Automatic mesh                          
   0.00000000  0.00000000  0.00000000       0.002
   0.02320243 -0.00000000  0.00000000       0.012
   0.04640487 -0.00000000  0.00000000       0.012
   0.06960730 -0.00000000  0.00000000       0.012
   0.09280974 -0.00000000  0.00000000       0.006
   0.02320243  0.02320243  0.00000000       0.023
   0.04640487  0.02320243  0.00000000       0.047
   0.06960730  0.02320243  0.00000000       0.047
   0.09280974  0.02320243  0.00000000       0.023
   0.04640487  0.04640487  0.00000000       0.023
   0.06960730  0.04640487  0.00000000       0.047
   0.09280974  0.04640487  0.00000000       0.023
   0.06960730  0.06960730  0.00000000       0.023
   0.09280974  0.06960730  0.00000000       0.023
   0.09280974  0.09280974  0.00000000       0.006
   0.02320243  0.02320243  0.02320243       0.016
   0.04640487  0.02320243  0.02320243       0.047
   0.06960730  0.02320243  0.02320243       0.047
   0.09280974  0.02320243  0.02320243       0.023
   0.04640487  0.04640487  0.02320243       0.047
   0.06960730  0.04640487  0.02320243       0.094
   0.09280974  0.04640487  0.02320243       0.047
   0.06960730  0.06960730  0.02320243       0.047
   0.09280974  0.06960730  0.02320243       0.047
   0.09280974  0.09280974  0.02320243       0.012
   0.04640487  0.04640487  0.04640487       0.016
   0.06960730  0.04640487  0.04640487       0.047
   0.09280974  0.04640487  0.04640487       0.023
   0.06960730  0.06960730  0.04640487       0.047
   0.09280974  0.06960730  0.04640487       0.047
   0.09280974  0.09280974  0.04640487       0.012
   0.06960730  0.06960730  0.06960730       0.016
   0.09280974  0.06960730  0.06960730       0.023
   0.09280974  0.09280974  0.06960730       0.012
   0.09280974  0.09280974  0.09280974       0.002
 
 k-points in reciprocal lattice and weights: Automatic mesh                          
   0.00000000  0.00000000  0.00000000       0.002
   0.12500000  0.00000000  0.00000000       0.012
   0.25000000  0.00000000  0.00000000       0.012
   0.37500000  0.00000000  0.00000000       0.012
   0.50000000  0.00000000  0.00000000       0.006
   0.12500000  0.12500000  0.00000000       0.023
   0.25000000  0.12500000  0.00000000       0.047
   0.37500000  0.12500000  0.00000000       0.047
   0.50000000  0.12500000  0.00000000       0.023
   0.25000000  0.25000000  0.00000000       0.023
   0.37500000  0.25000000  0.00000000       0.047
   0.50000000  0.25000000  0.00000000       0.023
   0.37500000  0.37500000  0.00000000       0.023
   0.50000000  0.37500000  0.00000000       0.023
   0.50000000  0.50000000  0.00000000       0.006
   0.12500000  0.12500000  0.12500000       0.016
   0.25000000  0.12500000  0.12500000       0.047
   0.37500000  0.12500000  0.12500000       0.047
   0.50000000  0.12500000  0.12500000       0.023
   0.25000000  0.25000000  0.12500000       0.047
   0.37500000  0.25000000  0.12500000       0.094
   0.50000000  0.25000000  0.12500000       0.047
   0.37500000  0.37500000  0.12500000       0.047
   0.50000000  0.37500000  0.12500000       0.047
   0.50000000  0.50000000  0.12500000       0.012
   0.25000000  0.25000000  0.25000000       0.016
   0.37500000  0.25000000  0.25000000       0.047
   0.50000000  0.25000000  0.25000000       0.023
   0.37500000  0.37500000  0.25000000       0.047
   0.50000000  0.37500000  0.25000000       0.047
   0.50000000  0.50000000  0.25000000       0.012
   0.37500000  0.37500000  0.37500000       0.016
   0.50000000  0.37500000  0.37500000       0.023
   0.50000000  0.50000000  0.37500000       0.012
   0.50000000  0.50000000  0.50000000       0.002
 
 position of ions in fractional coordinates (direct lattice) 
   0.00000000  0.00000000  0.00000000
   0.00000000  0.50000000  0.50000000
   0.50000000  0.00000000  0.50000000
   0.50000000  0.50000000  0.00000000
   0.25000000  0.75000000  0.75000000
   0.25000000  0.25000000  0.25000000
   0.75000000  0.75000000  0.25000000
   0.75000000  0.25000000  0.75000000
 
 position of ions in cartesian coordinates  (Angst):
   0.00000000  0.00000000  0.00000000
   0.00000000  2.69368288  2.69368288
   2.69368288  0.00000000  2.69368288
   2.69368288  2.69368288  0.00000000
   1.34684144  4.04052432  4.04052432
   1.34684144  1.34684144  1.34684144
   4.04052432  4.04052432  1.34684144
   4.04052432  1.34684144  4.04052432
 


--------------------------------------------------------------------------------------------------------


 k-point  1 :   0.0000 0.0000 0.0000  plane waves:    3911
 k-point  2 :   0.1250 0.0000 0.0000  plane waves:    3939
 k-point  3 :   0.2500 0.0000 0.0000  plane waves:    3948
 k-point  4 :   0.3750 0.0000 0.0000  plane waves:    3976
 k-point  5 :   0.5000 0.0000 0.0000  plane waves:    3980
 k-point  6 :   0.1250 0.1250 0.0000  plane waves:    3942
 k-point  7 :   0.2500 0.1250 0.0000  plane waves:    3971
 k-point  8 :   0.3750 0.1250 0.0000  plane waves:    3979
 k-point  9 :   0.5000 0.1250 0.0000  plane waves:    3978
 k-point 10 :   0.2500 0.2500 0.0000  plane waves:    3974
 k-point 11 :   0.3750 0.2500 0.0000  plane waves:    3975
 k-point 12 :   0.5000 0.2500 0.0000  plane waves:    3984
 k-point 13 :   0.3750 0.3750 0.0000  plane waves:    3974
 k-point 14 :   0.5000 0.3750 0.0000  plane waves:    3976
 k-point 15 :   0.5000 0.5000 0.0000  plane waves:    3932
 k-point 16 :   0.1250 0.1250 0.1250  plane waves:    3935
 k-point 17 :   0.2500 0.1250 0.1250  plane waves:    3971
 k-point 18 :   0.3750 0.1250 0.1250  plane waves:    3984
 k-point 19 :   0.5000 0.1250 0.1250  plane waves:    3970
 k-point 20 :   0.2500 0.2500 0.1250  plane waves:    3967
 k-point 21 :   0.3750 0.2500 0.1250  plane waves:    3978
 k-point 22 :   0.5000 0.2500 0.1250  plane waves:    3974
 k-point 23 :   0.3750 0.3750 0.1250  plane waves:    3959
 k-point 24 :   0.5000 0.3750 0.1250  plane waves:    3978
 k-point 25 :   0.5000 0.5000 0.1250  plane waves:    3976
 k-point 26 :   0.2500 0.2500 0.2500  plane waves:    3977
 k-point 27 :   0.3750 0.2500 0.2500  plane waves:    3963
 k-point 28 :   0.5000 0.2500 0.2500  plane waves:    3960
 k-point 29 :   0.3750 0.3750 0.2500  plane waves:    3972
 k-point 30 :   0.5000 0.3750 0.2500  plane waves:    3974
 k-point 31 :   0.5000 0.5000 0.2500  plane waves:    3968
 k-point 32 :   0.3750 0.3750 0.3750  plane waves:    3987
 k-point 33 :   0.5000 0.3750 0.3750  plane waves:    3974
 k-point 34 :   0.5000 0.5000 0.3750  plane waves:    3960
 k-point 35 :   0.5000 0.5000 0.5000  plane waves:    3912

 maximum and minimum number of plane-waves per node :      3987     3911

 maximum number of plane-waves:      3987
 maximum index in each direction: 
   IXMAX=    9   IYMAX=    9   IZMAX=    9
   IXMIN=  -10   IYMIN=  -10   IZMIN=  -10

 NGX is ok and might be reduce to  40
 NGY is ok and might be reduce to  40
 NGZ is ok and might be reduce to  40

 serial   3D FFT for wavefunctions
 parallel 3D FFT for charge:
    minimum data exchange during FFTs selected (reduces bandwidth)


 total amount of memory used by VASP on root node    87977. kBytes
========================================================================

   base      :      30000. kBytes
   nonl-proj :      40832. kBytes
   fftplans  :        914. kBytes
   grid      :       6737. kBytes
   one-center:        248. kBytes
   wavefun   :       9246. kBytes
 
 Broyden mixing: mesh for mixing (old mesh)
   NGX = 19   NGY = 19   NGZ = 19
  (NGX  = 80   NGY  = 80   NGZ  = 80)
  gives a total of   6859 points

 initial charge density was supplied:
 charge density of overlapping atoms calculated
 number of electron      72.0000000 magnetization       8.0000000
 keeping initial charge density in first step


--------------------------------------------------------------------------------------------------------


 Maximum index for augmentation-charges          621 (set IRDMAX)


--------------------------------------------------------------------------------------------------------


 First call to EWALD:  gamma=   0.329
 Maximum number of real-space cells 3x 3x 3
 Maximum number of reciprocal cells 3x 3x 3

 FEWALD executed in parallel
    FEWALD:  cpu time    0.00: real time    0.00


----------------------------------------- Iteration    1(   1)  ---------------------------------------


    POTLOK:  cpu time    0.06: real time    0.06
    SETDIJ:  cpu time    0.46: real time    0.46
     EDDAV:  cpu time    5.39: real time    5.43
       DOS:  cpu time    0.00: real time    0.00
    --------------------------------------------
      LOOP:  cpu time    5.91: real time    5.96

 eigenvalue-minimisations  :  8960
 total energy-change (2. order) : 0.3578052E+03  (-0.3397999E+04)
 number of electron      72.0000000 magnetization       8.0000000
 augmentation part       72.0000000 magnetization       8.0000000

 Free energy of the ion-electron system (eV)
  ---------------------------------------------------
  alpha Z        PSCENC =       289.27843551
  Ewald energy   TEWEN  =     -5029.04680198
  -1/2 Hartree   DENC   =     -2753.19636876
  -exchange  EXHF       =         0.00000000
  -V(xc)+E(xc)   XCENC  =       278.31989829
  PAW double counting   =      6690.13562942    -7387.49333240
  entropy T*S    EENTRO =        -0.00181839
  eigenvalues    EBANDS =       167.19907868
  atomic energy  EATOM  =      8102.61046434
  ---------------------------------------------------
  free energy    TOTEN  =       357.80518471 eV

  energy without entropy =      357.80700310  energy(sigma->0) =      357.80609391


--------------------------------------------------------------------------------------------------------




----------------------------------------- Iteration    1(   2)  ---------------------------------------


     EDDAV:  cpu time    6.32: real time    6.37
       DOS:  cpu time    0.00: real time    0.00
    --------------------------------------------
      LOOP:  cpu time    6.33: real time    6.38

 eigenvalue-minimisations  : 10944
 total energy-change (2. order) :-0.3630070E+03  (-0.3432178E+03)
 number of electron      72.0000000 magnetization       8.0000000
 augmentation part       72.0000000 magnetization       8.0000000

 Free energy of the ion-electron system (eV)
  ---------------------------------------------------
  alpha Z        PSCENC =       289.27843551
  Ewald energy   TEWEN  =     -5029.04680198
  -1/2 Hartree   DENC   =     -2753.19636876
  -exchange  EXHF       =         0.00000000
  -V(xc)+E(xc)   XCENC  =       278.31989829
  PAW double counting   =      6690.13562942    -7387.49333240
  entropy T*S    EENTRO =        -0.00000000
  eigenvalues    EBANDS =      -195.80976833
  atomic energy  EATOM  =      8102.61046434
  ---------------------------------------------------
  free energy    TOTEN  =        -5.20184390 eV

  energy without entropy =       -5.20184390  energy(sigma->0) =       -5.20184390


--------------------------------------------------------------------------------------------------------




----------------------------------------- Iteration    1(   3)  ---------------------------------------


     EDDAV:  cpu time    7.20: real time    7.25
       DOS:  cpu time    0.00: real time    0.00
    --------------------------------------------
      LOOP:  cpu time    7.20: real time    7.26

 eigenvalue-minimisations  : 12352
 total energy-change (2. order) :-0.2196580E+02  (-0.2190043E+02)
 number of electron      72.0000000 magnetization       8.0000000
 augmentation part       72.0000000 magnetization       8.0000000

 Free energy of the ion-electron system (eV)
  ---------------------------------------------------
  alpha Z        PSCENC =       289.27843551
  Ewald energy   TEWEN  =     -5029.04680198
  -1/2 Hartree   DENC   =     -2753.19636876
  -exchange  EXHF       =         0.00000000
  -V(xc)+E(xc)   XCENC  =       278.31989829
  PAW double counting   =      6690.13562942    -7387.49333240
  entropy T*S    EENTRO =        -0.00000000
  eigenvalues    EBANDS =      -217.77557194
  atomic energy  EATOM  =      8102.61046434
  ---------------------------------------------------
  free energy    TOTEN  =       -27.16764751 eV

  energy without entropy =      -27.16764751  energy(sigma->0) =      -27.16764751


--------------------------------------------------------------------------------------------------------




----------------------------------------- Iteration    1(   4)  ---------------------------------------


     EDDAV:  cpu time    6.42: real time    6.47
       DOS:  cpu time    0.00: real time    0.00
    --------------------------------------------
      LOOP:  cpu time    6.43: real time    6.48

 eigenvalue-minimisations  : 10944
 total energy-change (2. order) :-0.2133989E+00  (-0.2133799E+00)
 number of electron      72.0000000 magnetization       8.0000000
 augmentation part       72.0000000 magnetization       8.0000000

 Free energy of the ion-electron system (eV)
  ---------------------------------------------------
  alpha Z        PSCENC =       289.27843551
  Ewald energy   TEWEN  =     -5029.04680198
  -1/2 Hartree   DENC   =     -2753.19636876
  -exchange  EXHF       =         0.00000000
  -V(xc)+E(xc)   XCENC  =       278.31989829
  PAW double counting   =      6690.13562942    -7387.49333240
  entropy T*S    EENTRO =        -0.00000000
  eigenvalues    EBANDS =      -217.98897088
  atomic energy  EATOM  =      8102.61046434
  ---------------------------------------------------
  free energy    TOTEN  =       -27.38104645 eV

  energy without entropy =      -27.38104645  energy(sigma->0) =      -27.38104645


--------------------------------------------------------------------------------------------------------




----------------------------------------- Iteration    1(   5)  ---------------------------------------


     EDDAV:  cpu time    6.93: real time    6.98
       DOS:  cpu time    0.00: real time    0.00
    CHARGE:  cpu time    0.30: real time    0.30
    MIXING:  cpu time    0.00: real time    0.00
    --------------------------------------------
      LOOP:  cpu time    7.23: real time    7.29

 eigenvalue-minimisations  : 11904
 total energy-change (2. order) :-0.2669050E-02  (-0.2669015E-02)
 number of electron      72.0000084 magnetization       0.6232401
 augmentation part       28.4752101 magnetization       0.7120269

 Broyden mixing:
  rms(total) = 0.20554E+01    rms(broyden)= 0.20554E+01
  rms(prec ) = 0.23868E+01
  weight for this iteration     100.00

 Free energy of the ion-electron system (eV)
  ---------------------------------------------------
  alpha Z        PSCENC =       289.27843551
  Ewald energy   TEWEN  =     -5029.04680198
  -1/2 Hartree   DENC   =     -2753.19636876
  -exchange  EXHF       =         0.00000000
  -V(xc)+E(xc)   XCENC  =       278.31989829
  PAW double counting   =      6690.13562942    -7387.49333240
  entropy T*S    EENTRO =        -0.00000000
  eigenvalues    EBANDS =      -217.99163993
  atomic energy  EATOM  =      8102.61046434
  ---------------------------------------------------
  free energy    TOTEN  =       -27.38371550 eV

  energy without entropy =      -27.38371550  energy(sigma->0) =      -27.38371550


--------------------------------------------------------------------------------------------------------




----------------------------------------- Iteration    1(   6)  ---------------------------------------


    POTLOK:  cpu time    0.04: real time    0.04
    SETDIJ:  cpu time    0.46: real time    0.46
     EDDAV:  cpu time    7.33: real time    7.38
       DOS:  cpu time    0.00: real time    0.00
    CHARGE:  cpu time    0.30: real time    0.30
    MIXING:  cpu time    0.00: real time    0.00
    --------------------------------------------
      LOOP:  cpu time    8.13: real time    8.19

 eigenvalue-minimisations  : 12960
 total energy-change (2. order) : 0.1549371E+00  (-0.3651514E+00)
 number of electron      72.0000086 magnetization       0.0951948
 augmentation part       28.9432230 magnetization       0.0218642

 Broyden mixing:
  rms(total) = 0.11936E+01    rms(broyden)= 0.11936E+01
  rms(prec ) = 0.12605E+01
  weight for this iteration     100.00

 eigenvalues of (default mixing * dielectric matrix)
  average eigenvalue GAMMA=   0.7727
  0.7727

 Free energy of the ion-electron system (eV)
  ---------------------------------------------------
  alpha Z        PSCENC =       289.27843551
  Ewald energy   TEWEN  =     -5029.04680198
  -1/2 Hartree   DENC   =     -2726.41392737
  -exchange  EXHF       =         0.00000000
  -V(xc)+E(xc)   XCENC  =       277.63760095
  PAW double counting   =      7237.91236547    -7925.79425145
  entropy T*S    EENTRO =        -0.00000000
  eigenvalues    EBANDS =      -253.41266390
  atomic energy  EATOM  =      8102.61046434
  ---------------------------------------------------
  free energy    TOTEN  =       -27.22877844 eV

  energy without entropy =      -27.22877844  energy(sigma->0) =      -27.22877844


--------------------------------------------------------------------------------------------------------




----------------------------------------- Iteration    1(   7)  ---------------------------------------


    POTLOK:  cpu time    0.04: real time    0.04
    SETDIJ:  cpu time    0.46: real time    0.46
     EDDAV:  cpu time    6.31: real time    6.36
       DOS:  cpu time    0.00: real time    0.00
    CHARGE:  cpu time    0.30: real time    0.30
    MIXING:  cpu time    0.00: real time    0.00
    --------------------------------------------
      LOOP:  cpu time    7.11: real time    7.16

 eigenvalue-minimisations  : 10784
 total energy-change (2. order) :-0.1491366E+00  (-0.1039626E+00)
 number of electron      72.0000086 magnetization      -0.1236977
 augmentation part       28.9089806 magnetization      -0.1097260

 Broyden mixing:
  rms(total) = 0.75332E+00    rms(broyden)= 0.75332E+00
  rms(prec ) = 0.78235E+00
  weight for this iteration     100.00

 eigenvalues of (default mixing * dielectric matrix)
  average eigenvalue GAMMA=   1.1317
  1.5302  0.7331

 Free energy of the ion-electron system (eV)
  ---------------------------------------------------
  alpha Z        PSCENC =       289.27843551
  Ewald energy   TEWEN  =     -5029.04680198
  -1/2 Hartree   DENC   =     -2729.74397932
  -exchange  EXHF       =         0.00000000
  -V(xc)+E(xc)   XCENC  =       278.01983222
  PAW double counting   =      7700.51008809    -8394.70074439
  entropy T*S    EENTRO =        -0.00000000
  eigenvalues    EBANDS =      -244.30520946
  atomic energy  EATOM  =      8102.61046434
  ---------------------------------------------------
  free energy    TOTEN  =       -27.37791499 eV

  energy without entropy =      -27.37791499  energy(sigma->0) =      -27.37791499


--------------------------------------------------------------------------------------------------------




----------------------------------------- Iteration    1(   8)  ---------------------------------------


    POTLOK:  cpu time    0.05: real time    0.05
    SETDIJ:  cpu time    0.46: real time    0.46
     EDDAV:  cpu time    6.61: real time    6.66
       DOS:  cpu time    0.00: real time    0.00
    CHARGE:  cpu time    0.30: real time    0.30
    MIXING:  cpu time    0.00: real time    0.00
    --------------------------------------------
      LOOP:  cpu time    7.42: real time    7.48

 eigenvalue-minimisations  : 11360
 total energy-change (2. order) : 0.1461595E-01  (-0.1269919E-01)
 number of electron      72.0000085 magnetization      -0.0367980
 augmentation part       28.8668903 magnetization      -0.0303943

 Broyden mixing:
  rms(total) = 0.28665E+00    rms(broyden)= 0.28665E+00
  rms(prec ) = 0.29876E+00
  weight for this iteration     100.00

 eigenvalues of (default mixing * dielectric matrix)
  average eigenvalue GAMMA=   1.2932
  2.4304  0.7953  0.6539

 Free energy of the ion-electron system (eV)
  ---------------------------------------------------
  alpha Z        PSCENC =       289.27843551
  Ewald energy   TEWEN  =     -5029.04680198
  -1/2 Hartree   DENC   =     -2729.94740183
  -exchange  EXHF       =         0.00000000
  -V(xc)+E(xc)   XCENC  =       278.38432116
  PAW double counting   =      8414.85341530    -9114.82803695
  entropy T*S    EENTRO =        -0.00000000
  eigenvalues    EBANDS =      -238.66769458
  atomic energy  EATOM  =      8102.61046434
  ---------------------------------------------------
  free energy    TOTEN  =       -27.36329905 eV

  energy without entropy =      -27.36329905  energy(sigma->0) =      -27.36329905


--------------------------------------------------------------------------------------------------------




----------------------------------------- Iteration    1(   9)  ---------------------------------------


    POTLOK:  cpu time    0.04: real time    0.04
    SETDIJ:  cpu time    0.46: real time    0.46
     EDDAV:  cpu time    6.54: real time    6.58
       DOS:  cpu time    0.00: real time    0.00
    CHARGE:  cpu time    0.30: real time    0.30
    MIXING:  cpu time    0.00: real time    0.00
    --------------------------------------------
      LOOP:  cpu time    7.33: real time    7.39

 eigenvalue-minimisations  : 11168
 total energy-change (2. order) :-0.5183620E-02  (-0.1720950E-02)
 number of electron      72.0000086 magnetization       0.0065396
 augmentation part       28.8818422 magnetization       0.0030114

 Broyden mixing:
  rms(total) = 0.77237E-01    rms(broyden)= 0.77237E-01
  rms(prec ) = 0.83430E-01
  weight for this iteration     100.00

 eigenvalues of (default mixing * dielectric matrix)
  average eigenvalue GAMMA=   1.2300
  2.4574  1.0444  0.7926  0.6257

 Free energy of the ion-electron system (eV)
  ---------------------------------------------------
  alpha Z        PSCENC =       289.27843551
  Ewald energy   TEWEN  =     -5029.04680198
  -1/2 Hartree   DENC   =     -2727.36425191
  -exchange  EXHF       =         0.00000000
  -V(xc)+E(xc)   XCENC  =       278.35236659
  PAW double counting   =      8711.55103957    -9412.21264955
  entropy T*S    EENTRO =        -0.00000000
  eigenvalues    EBANDS =      -240.53708523
  atomic energy  EATOM  =      8102.61046434
  ---------------------------------------------------
  free energy    TOTEN  =       -27.36848267 eV

  energy without entropy =      -27.36848267  energy(sigma->0) =      -27.36848267


--------------------------------------------------------------------------------------------------------




----------------------------------------- Iteration    1(  10)  ---------------------------------------


    POTLOK:  cpu time    0.04: real time    0.04
    SETDIJ:  cpu time    0.46: real time    0.46
     EDDAV:  cpu time    6.95: real time    7.01
       DOS:  cpu time    0.00: real time    0.00
    CHARGE:  cpu time    0.30: real time    0.30
    MIXING:  cpu time    0.00: real time    0.00
    --------------------------------------------
      LOOP:  cpu time    7.75: real time    7.81

 eigenvalue-minimisations  : 11872
 total energy-change (2. order) :-0.5503579E-03  (-0.4186005E-03)
 number of electron      72.0000086 magnetization       0.0025439
 augmentation part       28.8863267 magnetization       0.0038329

 Broyden mixing:
  rms(total) = 0.14484E-01    rms(broyden)= 0.14484E-01
  rms(prec ) = 0.19750E-01
  weight for this iteration     100.00

 eigenvalues of (default mixing * dielectric matrix)
  average eigenvalue GAMMA=   1.1718
  2.4114  1.1474  0.9161  0.7561  0.6277

 Free energy of the ion-electron system (eV)
  ---------------------------------------------------
  alpha Z        PSCENC =       289.27843551
  Ewald energy   TEWEN  =     -5029.04680198
  -1/2 Hartree   DENC   =     -2726.66255402
  -exchange  EXHF       =         0.00000000
  -V(xc)+E(xc)   XCENC  =       278.31387570
  PAW double counting   =      8749.84920561    -9450.43450216
  entropy T*S    EENTRO =        -0.00000000
  eigenvalues    EBANDS =      -241.27715601
  atomic energy  EATOM  =      8102.61046434
  ---------------------------------------------------
  free energy    TOTEN  =       -27.36903302 eV

  energy without entropy =      -27.36903302  energy(sigma->0) =      -27.36903302


--------------------------------------------------------------------------------------------------------




----------------------------------------- Iteration    1(  11)  ---------------------------------------


    POTLOK:  cpu time    0.04: real time    0.04
    SETDIJ:  cpu time    0.46: real time    0.46
     EDDAV:  cpu time    6.61: real time    6.66
       DOS:  cpu time    0.00: real time    0.00
    CHARGE:  cpu time    0.31: real time    0.31
    MIXING:  cpu time    0.00: real time    0.00
    --------------------------------------------
      LOOP:  cpu time    7.42: real time    7.48

 eigenvalue-minimisations  : 11392
 total energy-change (2. order) :-0.3261096E-03  (-0.5747960E-04)
 number of electron      72.0000086 magnetization      -0.0028462
 augmentation part       28.8846865 magnetization      -0.0029159

 Broyden mixing:
  rms(total) = 0.11066E-01    rms(broyden)= 0.11066E-01
  rms(prec ) = 0.13762E-01
  weight for this iteration     100.00

 eigenvalues of (default mixing * dielectric matrix)
  average eigenvalue GAMMA=   1.1430
  2.3649  1.1060  1.1060  0.6318  0.7916  0.8580

 Free energy of the ion-electron system (eV)
  ---------------------------------------------------
  alpha Z        PSCENC =       289.27843551
  Ewald energy   TEWEN  =     -5029.04680198
  -1/2 Hartree   DENC   =     -2726.78804266
  -exchange  EXHF       =         0.00000000
  -V(xc)+E(xc)   XCENC  =       278.31466605
  PAW double counting   =      8747.41098374    -9448.06368796
  entropy T*S    EENTRO =        -0.00000000
  eigenvalues    EBANDS =      -241.08537617
  atomic energy  EATOM  =      8102.61046434
  ---------------------------------------------------
  free energy    TOTEN  =       -27.36935913 eV

  energy without entropy =      -27.36935913  energy(sigma->0) =      -27.36935913


--------------------------------------------------------------------------------------------------------




----------------------------------------- Iteration    1(  12)  ---------------------------------------


    POTLOK:  cpu time    0.04: real time    0.04
    SETDIJ:  cpu time    0.46: real time    0.46
     EDDAV:  cpu time    6.53: real time    6.58
       DOS:  cpu time    0.00: real time    0.00
    CHARGE:  cpu time    0.30: real time    0.30
    MIXING:  cpu time    0.00: real time    0.00
    --------------------------------------------
      LOOP:  cpu time    7.33: real time    7.39

 eigenvalue-minimisations  : 11008
 total energy-change (2. order) :-0.2307096E-03  (-0.1520898E-04)
 number of electron      72.0000086 magnetization      -0.0021380
 augmentation part       28.8842535 magnetization      -0.0018523

 Broyden mixing:
  rms(total) = 0.48419E-02    rms(broyden)= 0.48419E-02
  rms(prec ) = 0.62216E-02
  weight for this iteration     100.00

 eigenvalues of (default mixing * dielectric matrix)
  average eigenvalue GAMMA=   1.3393
  2.5178  2.5178  1.2942  0.9406  0.6357  0.7346  0.7346

 Free energy of the ion-electron system (eV)
  ---------------------------------------------------
  alpha Z        PSCENC =       289.27843551
  Ewald energy   TEWEN  =     -5029.04680198
  -1/2 Hartree   DENC   =     -2726.96068894
  -exchange  EXHF       =         0.00000000
  -V(xc)+E(xc)   XCENC  =       278.32042094
  PAW double counting   =      8734.57632594    -9435.24404906
  entropy T*S    EENTRO =        -0.00000000
  eigenvalues    EBANDS =      -240.90369658
  atomic energy  EATOM  =      8102.61046434
  ---------------------------------------------------
  free energy    TOTEN  =       -27.36958984 eV

  energy without entropy =      -27.36958984  energy(sigma->0) =      -27.36958984


--------------------------------------------------------------------------------------------------------




----------------------------------------- Iteration    1(  13)  ---------------------------------------


    POTLOK:  cpu time    0.04: real time    0.04
    SETDIJ:  cpu time    0.46: real time    0.46
     EDDAV:  cpu time    6.54: real time    6.59
       DOS:  cpu time    0.00: real time    0.00
    CHARGE:  cpu time    0.33: real time    0.33
    MIXING:  cpu time    0.00: real time    0.00
    --------------------------------------------
      LOOP:  cpu time    7.37: real time    7.43

 eigenvalue-minimisations  : 11168
 total energy-change (2. order) :-0.6706274E-04  (-0.6676837E-05)
 number of electron      72.0000086 magnetization      -0.0001945
 augmentation part       28.8844275 magnetization      -0.0001871

 Broyden mixing:
  rms(total) = 0.20963E-02    rms(broyden)= 0.20963E-02
  rms(prec ) = 0.22316E-02
  weight for this iteration     100.00

 eigenvalues of (default mixing * dielectric matrix)
  average eigenvalue GAMMA=   1.3244
  2.6520  2.4894  1.4575  1.0394  0.9464  0.7660  0.6298  0.6148

 Free energy of the ion-electron system (eV)
  ---------------------------------------------------
  alpha Z        PSCENC =       289.27843551
  Ewald energy   TEWEN  =     -5029.04680198
  -1/2 Hartree   DENC   =     -2727.04577956
  -exchange  EXHF       =         0.00000000
  -V(xc)+E(xc)   XCENC  =       278.32522510
  PAW double counting   =      8730.23720260    -9430.91877544
  entropy T*S    EENTRO =        -0.00000000
  eigenvalues    EBANDS =      -240.80962747
  atomic energy  EATOM  =      8102.61046434
  ---------------------------------------------------
  free energy    TOTEN  =       -27.36965691 eV

  energy without entropy =      -27.36965691  energy(sigma->0) =      -27.36965691


--------------------------------------------------------------------------------------------------------




----------------------------------------- Iteration    1(  14)  ---------------------------------------


    POTLOK:  cpu time    0.04: real time    0.04
    SETDIJ:  cpu time    0.46: real time    0.46
     EDDAV:  cpu time    5.87: real time    5.91
       DOS:  cpu time    0.00: real time    0.00
    --------------------------------------------
[...]
     36       1.0521      1.00000
     37       5.3724      0.00000
     38       5.3724      0.00000
     39       5.3724      0.00000
     40       5.3724      0.00000
     41       8.6854      0.00000
     42       8.6854      0.00000
     43       8.6854      0.00000
     44       8.6854      0.00000
     45       8.9294      0.00000
     46       8.9294      0.00000
     47       8.9294      0.00000
     48       8.9294      0.00000
     49      10.6346      0.00000
     50      10.6346      0.00000
     51      10.6346      0.00000
     52      10.6346      0.00000
     53      14.0139      0.00000
     54      14.0139      0.00000
     55      14.0139      0.00000
     56      14.0139      0.00000
     57      14.5766      0.00000
     58      14.5766      0.00000
     59      14.5766      0.00000
     60      14.5766      0.00000
     61      15.4131      0.00000
     62      15.4131      0.00000
     63      15.4131      0.00000
     64      15.4131      0.00000

 k-point  35 :       0.5000    0.5000    0.5000
  band No.  band energies     occupation 
      1     -10.2051      1.00000
      2     -10.2051      1.00000
      3     -10.2051      1.00000
      4     -10.2051      1.00000
      5      -4.2486      1.00000
      6      -4.2486      1.00000
      7      -4.2486      1.00000
      8      -4.2486      1.00000
      9      -4.2486      1.00000
     10      -4.2486      1.00000
     11      -4.2486      1.00000
     12      -4.2486      1.00000
     13      -3.8589      1.00000
     14      -3.8589      1.00000
     15      -3.8589      1.00000
     16      -3.8589      1.00000
     17      -3.8589      1.00000
     18      -3.8589      1.00000
     19      -3.8589      1.00000
     20      -3.8589      1.00000
     21      -3.6926      1.00000
     22      -3.6926      1.00000
     23      -3.6926      1.00000
     24      -3.6926      1.00000
     25      -3.2477      1.00000
     26      -3.2477      1.00000
     27      -3.2477      1.00000
     28      -3.2477      1.00000
     29       1.0574      1.00000
     30       1.0574      1.00000
     31       1.0574      1.00000
     32       1.0574      1.00000
     33       1.0574      1.00000
     34       1.0574      1.00000
     35       1.0574      1.00000
     36       1.0574      1.00000
     37       5.1532      0.00000
     38       5.1532      0.00000
     39       5.1532      0.00000
     40       5.1532      0.00000
     41       8.8287      0.00000
     42       8.8287      0.00000
     43       8.8287      0.00000
     44       8.8287      0.00000
     45       8.8287      0.00000
     46       8.8287      0.00000
     47       8.8287      0.00000
     48       8.8287      0.00000
     49      10.6769      0.00000
     50      10.6769      0.00000
     51      10.6769      0.00000
     52      10.6769      0.00000
     53      13.9538      0.00000
     54      13.9538      0.00000
     55      13.9538      0.00000
     56      13.9538      0.00000
     57      15.2361      0.00000
     58      15.2361      0.00000
     59      15.2361      0.00000
     60      15.2361      0.00000
     61      15.2361      0.00000
     62      15.2361      0.00000
     63      15.2361      0.00000
     64      15.2361      0.00000


--------------------------------------------------------------------------------------------------------


 soft charge-density along one line, spin component           1
         0         1         2         3         4         5         6         7         8         9
 total charge-density along one line
 
 soft charge-density along one line, spin component           2
         0         1         2         3         4         5         6         7         8         9
 total charge-density along one line
 
 pseudopotential strength for first ion, spin component:           1
 -9.903   0.000  -0.000   0.000  -0.000 -10.262   0.000  -0.000
  0.000  -9.903   0.000   0.000  -0.000   0.000 -10.262   0.000
 -0.000   0.000  -9.903   0.000  -0.000  -0.000   0.000 -10.261
  0.000   0.000   0.000  -9.903   0.000   0.000   0.000   0.000
 -0.000  -0.000  -0.000   0.000  -9.903  -0.000  -0.000  -0.000
-10.262   0.000  -0.000   0.000  -0.000 -10.546   0.000  -0.000
  0.000 -10.262   0.000   0.000  -0.000   0.000 -10.546   0.000
 -0.000   0.000 -10.261   0.000  -0.000  -0.000   0.000 -10.545
  0.000   0.000   0.000 -10.262   0.000   0.000   0.000   0.000
 -0.000  -0.000  -0.000   0.000 -10.261  -0.000  -0.000  -0.000
 -0.000  -0.000  -0.000   0.000   0.000  -0.000  -0.000  -0.000
 -0.000  -0.000  -0.000   0.000   0.000  -0.000  -0.000  -0.000
 -0.000   0.000  -0.000  -0.002  -0.000  -0.000   0.000  -0.000
 -0.002   0.000   0.000  -0.000  -0.000  -0.002   0.000   0.000
 -0.000  -0.002   0.000   0.000  -0.000  -0.000  -0.002   0.000
 -0.000   0.000  -0.000  -0.001  -0.000  -0.000   0.000  -0.000
 -0.001   0.000   0.000  -0.000  -0.000  -0.001   0.000   0.000
 -0.000  -0.001   0.000   0.000  -0.000  -0.000  -0.001   0.000
 pseudopotential strength for first ion, spin component:           2
 -9.903   0.000  -0.000   0.000  -0.000 -10.262   0.000  -0.000
  0.000  -9.903   0.000   0.000  -0.000   0.000 -10.262   0.000
 -0.000   0.000  -9.903   0.000  -0.000  -0.000   0.000 -10.261
  0.000   0.000   0.000  -9.903   0.000   0.000   0.000   0.000
 -0.000  -0.000  -0.000   0.000  -9.903  -0.000  -0.000  -0.000
-10.262   0.000  -0.000   0.000  -0.000 -10.546   0.000  -0.000
  0.000 -10.262   0.000   0.000  -0.000   0.000 -10.546   0.000
 -0.000   0.000 -10.261   0.000  -0.000  -0.000   0.000 -10.545
  0.000   0.000   0.000 -10.262   0.000   0.000   0.000   0.000
 -0.000  -0.000  -0.000   0.000 -10.261  -0.000  -0.000  -0.000
  0.000  -0.000  -0.000   0.000   0.000  -0.000  -0.000  -0.000
  0.000  -0.000  -0.000   0.000   0.000   0.000  -0.000  -0.000
 -0.000   0.000  -0.000  -0.002  -0.000  -0.000   0.000  -0.000
 -0.002  -0.000   0.000  -0.000  -0.000  -0.002  -0.000   0.000
 -0.000  -0.002   0.000   0.000  -0.000  -0.000  -0.002   0.000
 -0.000   0.000  -0.000  -0.001  -0.000  -0.000   0.000  -0.000
 -0.001  -0.000   0.000  -0.000  -0.000  -0.001  -0.000   0.000
 -0.000  -0.001   0.000   0.000  -0.000  -0.000  -0.001   0.000
 total augmentation occupancy for first ion, spin component:           1
  3.971   0.000  -0.000   0.000   0.000  -1.950  -0.000   0.000  -0.000  -0.000  -0.000  -0.000   0.000  -0.655  -0.000   0.000
  0.000   3.971   0.000   0.000  -0.000  -0.000  -1.950  -0.000  -0.000   0.000  -0.000  -0.000  -0.000  -0.000  -0.655   0.000
 -0.000   0.000   2.546   0.000   0.000   0.000  -0.000  -0.540  -0.000   0.000   0.000   0.000  -0.000   0.000  -0.000   0.000
  0.000   0.000   0.000   3.971   0.000  -0.000  -0.000  -0.000  -1.950  -0.000  -0.000  -0.000  -0.655  -0.000  -0.000   0.095
  0.000  -0.000   0.000   0.000   2.546  -0.000   0.000  -0.000  -0.000  -0.540  -0.000  -0.000  -0.000  -0.000  -0.000  -0.000
 -1.950  -0.000   0.000  -0.000  -0.000   1.923   0.000  -0.000   0.000   0.000  -0.000  -0.000   0.000   0.635   0.000  -0.000
 -0.000  -1.950  -0.000  -0.000   0.000   0.000   1.923   0.000   0.000  -0.000   0.000   0.000   0.000   0.000   0.635  -0.000
  0.000  -0.000  -0.540  -0.000  -0.000  -0.000   0.000   0.527   0.000   0.000  -0.000   0.000   0.000  -0.000   0.000  -0.000
 -0.000  -0.000  -0.000  -1.950  -0.000   0.000   0.000   0.000   1.923   0.000   0.000   0.000   0.635   0.000   0.000  -0.108
 -0.000   0.000   0.000  -0.000  -0.540   0.000  -0.000  -0.000   0.000   0.527   0.000   0.000   0.000   0.000  -0.000  -0.000
 -0.000   0.000   0.000  -0.000   0.000  -0.000   0.000  -0.000   0.000   0.000   2.426  -0.555   0.000   0.000  -0.000  -0.000
 -0.000  -0.000   0.000   0.000  -0.000  -0.000   0.000  -0.000   0.000  -0.000  -0.555   0.152   0.000   0.000  -0.000  -0.000
 -0.000  -0.000  -0.000  -0.655  -0.000  -0.000   0.000   0.000   0.635   0.000  -0.000   0.000   0.346   0.000   0.000  -0.059
 -0.655  -0.000   0.000  -0.000  -0.000   0.635   0.000  -0.000   0.000   0.000  -0.000   0.000   0.000   0.346   0.000  -0.000
  0.000  -0.655  -0.000  -0.000  -0.000   0.000   0.635   0.000   0.000  -0.000  -0.000   0.000   0.000   0.000   0.346  -0.000
  0.000   0.000   0.000   0.095   0.000  -0.000  -0.000  -0.000  -0.108  -0.000   0.000  -0.000  -0.059  -0.000  -0.000   0.012
  0.095   0.000  -0.000   0.000   0.000  -0.108  -0.000   0.000  -0.000  -0.000  -0.000  -0.000  -0.000  -0.059  -0.000   0.000
  0.000   0.095   0.000   0.000   0.000  -0.000  -0.108  -0.000  -0.000   0.000  -0.000  -0.000  -0.000  -0.000  -0.059   0.000
 total augmentation occupancy for first ion, spin component:           2
  0.000   0.000  -0.000   0.000   0.000  -0.000  -0.000   0.000  -0.000  -0.000   0.000   0.000   0.000  -0.000   0.000  -0.000
  0.000   0.000   0.000   0.000  -0.000  -0.000  -0.000  -0.000  -0.000   0.000  -0.000   0.000   0.000  -0.000  -0.000   0.000
 -0.000   0.000   0.000   0.000  -0.000   0.000  -0.000  -0.000  -0.000  -0.000   0.000   0.000  -0.000   0.000  -0.000   0.000
  0.000   0.000   0.000   0.000   0.000  -0.000  -0.000  -0.000  -0.000  -0.000   0.000  -0.000  -0.000  -0.000  -0.000   0.000
  0.000  -0.000  -0.000   0.000   0.000  -0.000   0.000   0.000  -0.000  -0.000   0.000   0.000  -0.000  -0.000   0.000  -0.000
 -0.000  -0.000   0.000  -0.000  -0.000   0.000   0.000  -0.000   0.000   0.000  -0.000   0.000  -0.000  -0.000   0.000   0.000
 -0.000  -0.000  -0.000  -0.000   0.000   0.000   0.000   0.000   0.000  -0.000   0.000  -0.000  -0.000  -0.000  -0.000   0.000
  0.000  -0.000  -0.000  -0.000   0.000  -0.000   0.000   0.000   0.000   0.000  -0.000   0.000  -0.000   0.000  -0.000   0.000
 -0.000  -0.000  -0.000  -0.000  -0.000   0.000   0.000   0.000   0.000   0.000  -0.000   0.000  -0.000  -0.000  -0.000   0.000
 -0.000  -0.000   0.000  -0.000  -0.000   0.000   0.000  -0.000   0.000   0.000   0.000  -0.000  -0.000  -0.000  -0.000  -0.000
  0.000  -0.000   0.000   0.000   0.000  -0.000   0.000  -0.000  -0.000  -0.000  -0.000   0.000   0.000  -0.000  -0.000   0.000
  0.000   0.000  -0.000  -0.000  -0.000   0.000  -0.000   0.000   0.000  -0.000   0.000  -0.000  -0.000   0.000   0.000  -0.000
  0.000   0.000  -0.000  -0.000   0.000  -0.000  -0.000  -0.000  -0.000  -0.000   0.000  -0.000  -0.000  -0.000  -0.000   0.000
 -0.000  -0.000   0.000  -0.000  -0.000  -0.000  -0.000   0.000  -0.000  -0.000  -0.000   0.000  -0.000  -0.000  -0.000   0.000
  0.000  -0.000  -0.000  -0.000   0.000   0.000  -0.000  -0.000  -0.000   0.000  -0.000   0.000  -0.000  -0.000  -0.000   0.000
 -0.000   0.000   0.000   0.000  -0.000   0.000   0.000   0.000   0.000  -0.000   0.000  -0.000   0.000   0.000   0.000  -0.000
  0.000   0.000  -0.000   0.000   0.000   0.000   0.000  -0.000   0.000   0.000   0.000   0.000   0.000   0.000   0.000  -0.000
  0.000   0.000   0.000   0.000  -0.000  -0.000   0.000   0.000   0.000  -0.000   0.000   0.000   0.000   0.000   0.000  -0.000


------------------------ aborting loop because EDIFF is reached ----------------------------------------


 


 total charge     
 
# of ion     s       p       d       tot
----------------------------------------
  1        0.513   0.456   9.797  10.767
  2        0.513   0.456   9.797  10.767
  3        0.513   0.456   9.797  10.767
  4        0.513   0.456   9.797  10.767
  5        1.316   2.425   0.000   3.741
  6        1.316   2.425   0.000   3.741
  7        1.316   2.425   0.000   3.741
  8        1.316   2.425   0.000   3.741
------------------------------------------------
tot        7.317  11.528  39.189  58.034
 


 magnetization (x)
 
# of ion     s       p       d       tot
----------------------------------------
  1       -0.000  -0.000  -0.000  -0.000
  2       -0.000  -0.000  -0.000  -0.000
  3       -0.000  -0.000  -0.000  -0.000
  4       -0.000  -0.000  -0.000  -0.000
  5       -0.000   0.000   0.000  -0.000
  6        0.000   0.000   0.000   0.000
  7        0.000   0.000   0.000   0.000
  8       -0.000   0.000   0.000  -0.000
------------------------------------------------
tot       -0.000  -0.000  -0.000  -0.000
 
    CHARGE:  cpu time    0.30: real time    0.30
    FORLOC:  cpu time    0.00: real time    0.00
    FORNL :  cpu time    0.50: real time    0.50
    STRESS:  cpu time    1.34: real time    1.34
    FORCOR:  cpu time    0.03: real time    0.03
    FORHAR:  cpu time    0.00: real time    0.00
    MIXING:  cpu time    0.00: real time    0.00

  FORCE on cell =-STRESS in cart. coord.  units (eV):
  Direction    XX          YY          ZZ          XY          YZ          ZX
  --------------------------------------------------------------------------------------
  Alpha Z   279.93566   279.93566   279.93566
  Ewald   -1658.10663 -1658.10663 -1658.10663     0.00000    -0.00000    -0.00000
  Hartree   919.68301   919.68301   919.68301    -0.00000    -0.00000    -0.00000
  E(xc)    -374.00524  -374.00524  -374.00524    -0.00000     0.00000     0.00000
  Local     -24.04682   -24.04682   -24.04682    -0.00000    -0.00000     0.00000
  n-local   157.61779   159.85642   157.89126    -1.65514    -1.44091    -0.89765
  augment    92.77640    92.77640    92.77640    -0.00000    -0.00000    -0.00000
  Kinetic   599.91385   608.43085   607.65546    -3.14258    -3.29739    -1.88546
  Fock        0.00000     0.00000     0.00000     0.00000     0.00000     0.00000
  -------------------------------------------------------------------------------------
  Total       0.02492     0.02492     0.02492     0.00000     0.00000     0.00000
  in kB       0.24713     0.24713     0.24713     0.00000     0.00000     0.00000
  external pressure =        0.25 kB  Pullay stress =        0.00 kB


 VOLUME and BASIS-vectors are now :
 -----------------------------------------------------------------------------
  energy-cutoff  :      500.00
  volume of cell :      161.58
      direct lattice vectors                 reciprocal lattice vectors
     5.446645042  0.000000000  0.000000000     0.183599260 -0.000000000 -0.000000000
     0.000000000  5.446645042  0.000000000    -0.000000000  0.183599260 -0.000000000
     0.000000000  0.000000000  5.446645042    -0.000000000 -0.000000000  0.183599260

  length of vectors
     5.446645042  5.446645042  5.446645042     0.183599260  0.183599260  0.183599260


 FORCES acting on ions
    electron-ion (+dipol)            ewald-force                    non-local-force                 convergence-correction
 -----------------------------------------------------------------------------------------------
   0.450E-13 0.933E-13 -.204E-12   0.128E-12 0.568E-13 0.426E-13   -.133E-16 -.369E-17 -.520E-17   0.713E-13 0.779E-13 -.335E-12
   0.440E-13 -.103E-12 -.319E-12   0.128E-12 0.568E-13 0.426E-13   0.489E-17 -.586E-17 0.694E-17   0.678E-13 0.289E-12 -.165E-12
   0.447E-13 0.109E-12 -.506E-11   0.995E-13 0.568E-13 0.426E-13   -.205E-17 -.124E-16 0.208E-16   0.207E-12 0.273E-13 -.171E-12
   0.866E-13 0.197E-12 -.630E-11   0.995E-13 0.568E-13 0.426E-13   0.749E-17 0.163E-16 -.121E-16   0.188E-12 0.270E-12 -.321E-12
   0.305E-13 0.422E-12 -.256E-13   -.128E-12 -.556E-13 -.420E-13   0.432E-17 0.468E-16 -.867E-17   -.503E-13 -.800E-13 -.164E-13
   0.294E-13 0.232E-12 -.596E-13   -.128E-12 -.568E-13 -.435E-13   -.442E-16 0.512E-16 0.173E-17   -.498E-13 0.236E-13 -.424E-13
   0.681E-13 0.637E-13 -.132E-11   -.990E-13 -.568E-13 -.434E-13   0.251E-16 -.182E-16 0.191E-16   0.216E-13 -.772E-13 -.399E-13
   0.110E-12 -.166E-11 0.308E-12   -.991E-13 -.581E-13 -.420E-13   0.737E-16 -.139E-16 -.867E-17   0.234E-13 0.243E-13 -.128E-13
 -----------------------------------------------------------------------------------------------
   0.459E-12 -.649E-12 -.130E-10   0.248E-15 0.101E-15 -.254E-15   0.559E-16 0.603E-16 0.139E-16   0.479E-12 0.554E-12 -.110E-11
 
 
 POSITION                                       TOTAL-FORCE (eV/Angst)
 -----------------------------------------------------------------------------------
      0.00000      0.00000     -0.00000        -0.000000      0.000000     -0.000000
      0.00000      2.72332      2.72332         0.000000      0.000000     -0.000000
      2.72332      0.00000      2.72332        -0.000000     -0.000000     -0.000000
      2.72332      2.72332      0.00000         0.000000     -0.000000     -0.000000
      1.36166      4.08498      4.08498        -0.000000     -0.000000      0.000000
      1.36166      1.36166      1.36166        -0.000000      0.000000      0.000000
      4.08498      4.08498      1.36166         0.000000      0.000000      0.000000
      4.08498      1.36166      4.08498        -0.000000      0.000000      0.000000
 -----------------------------------------------------------------------------------
    total drift:                                0.000000     -0.000000     -0.000000


--------------------------------------------------------------------------------------------------------



  FREE ENERGIE OF THE ION-ELECTRON SYSTEM (eV)
  ---------------------------------------------------
  free  energy   TOTEN  =       -27.40872049 eV

  energy  without entropy=      -27.40872049  energy(sigma->0) =      -27.40872049
 
 d Force = 0.0000000E+00[ 0.000E+00, 0.000E+00]  d Energy = 0.3870917E-02-0.387E-02
 d Force = 0.0000000E+00[ 0.000E+00, 0.000E+00]  d Ewald  = 0.1747821E+02-0.175E+02


--------------------------------------------------------------------------------------------------------


    POTLOK:  cpu time    0.49: real time    0.49


--------------------------------------------------------------------------------------------------------




--------------------------------------------------------------------------------------------------------


  
 reached required accuracy - stopping structural energy minimisation
 writing wavefunctions
     LOOP+:  cpu time   56.46: real time   57.41
    4ORBIT:  cpu time    0.00: real time    0.00
 


 total charge     
 
# of ion     s       p       d       tot
----------------------------------------
  1        0.513   0.456   9.797  10.767
  2        0.513   0.456   9.797  10.767
  3        0.513   0.456   9.797  10.767
  4        0.513   0.456   9.797  10.767
  5        1.316   2.425   0.000   3.741
  6        1.316   2.425   0.000   3.741
  7        1.316   2.425   0.000   3.741
  8        1.316   2.425   0.000   3.741
------------------------------------------------
tot        7.317  11.528  39.189  58.034
 


 magnetization (x)
 
# of ion     s       p       d       tot
----------------------------------------
  1       -0.000  -0.000  -0.000  -0.000
  2       -0.000  -0.000  -0.000  -0.000
  3       -0.000  -0.000  -0.000  -0.000
  4       -0.000  -0.000  -0.000  -0.000
  5       -0.000   0.000   0.000  -0.000
  6        0.000   0.000   0.000   0.000
  7        0.000   0.000   0.000   0.000
  8       -0.000   0.000   0.000  -0.000
------------------------------------------------
tot       -0.000  -0.000  -0.000  -0.000
 

 total amount of memory used by VASP on root node    87977. kBytes
========================================================================

   base      :      30000. kBytes
   nonl-proj :      40832. kBytes
   fftplans  :        914. kBytes
   grid      :       6737. kBytes
   one-center:        248. kBytes
   wavefun   :       9246. kBytes
 
  
  
 General timing and accounting informations for this job:
 ========================================================
  
                  Total CPU time used (sec):      236.193
                            User time (sec):      225.281
                          System time (sec):       10.913
                         Elapsed time (sec):      239.725
  
                   Maximum memory used (kb):      118608.
                   Average memory used (kb):           0.
  
                          Minor page faults:        95773
                          Major page faults:            1
                 Voluntary context switches:         8247
