ZnS (band)                              
           1
     5.446645    0.000000    0.000000
     0.000000    5.446645    0.000000
     0.000000    0.000000    5.446645
   Zn   S 
   4   4
ZnS (band)                              
           1
     5.446645    0.000000    0.000000
     0.000000    5.446645    0.000000
     0.000000    0.000000    5.446645
   Zn   S 
   4   4
Direct configuration=     1
   0.00000000  0.00000000  0.00000000
   0.00000000  0.50000000  0.50000000
   0.50000000  0.00000000  0.50000000
   0.50000000  0.50000000  0.00000000
   0.25000000  0.75000000  0.75000000
   0.25000000  0.25000000  0.25000000
   0.75000000  0.75000000  0.25000000
   0.75000000  0.25000000  0.75000000
