   5   5   1   0
  0.1303874E+02  0.4024716E-09  0.4024716E-09  0.4024716E-09  0.5000000E-15
  1.000000000000000E-004
  CAR 
 Perovskite (band)                       
     42.58463734    -20.02017808  301      4.21310256      1.00000000
    -20.020  0.4792E+01  0.4792E+01  0.1000E+01  0.1000E+01
    -19.811  0.0000E+00  0.0000E+00  0.1000E+01  0.1000E+01
    -19.603  0.0000E+00  0.0000E+00  0.1000E+01  0.1000E+01
    -19.394  0.0000E+00  0.0000E+00  0.1000E+01  0.1000E+01
    -19.185  0.0000E+00  0.0000E+00  0.1000E+01  0.1000E+01
    -18.977  0.0000E+00  0.0000E+00  0.1000E+01  0.1000E+01
    -18.768  0.0000E+00  0.0000E+00  0.1000E+01  0.1000E+01
    -18.559  0.0000E+00  0.0000E+00  0.1000E+01  0.1000E+01
    -18.351  0.0000E+00  0.0000E+00  0.1000E+01  0.1000E+01
    -18.142  0.0000E+00  0.0000E+00  0.1000E+01  0.1000E+01
    -17.933  0.0000E+00  0.0000E+00  0.1000E+01  0.1000E+01
    -17.725  0.0000E+00  0.0000E+00  0.1000E+01  0.1000E+01
    -17.516  0.0000E+00  0.0000E+00  0.1000E+01  0.1000E+01
    -17.307  0.0000E+00  0.0000E+00  0.1000E+01  0.1000E+01
    -17.099  0.0000E+00  0.0000E+00  0.1000E+01  0.1000E+01
    -16.890  0.0000E+00  0.0000E+00  0.1000E+01  0.1000E+01
    -16.681  0.0000E+00  0.0000E+00  0.1000E+01  0.1000E+01
    -16.473  0.0000E+00  0.0000E+00  0.1000E+01  0.1000E+01
    -16.264  0.0000E+00  0.0000E+00  0.1000E+01  0.1000E+01
    -16.055  0.0000E+00  0.0000E+00  0.1000E+01  0.1000E+01
    -15.847  0.0000E+00  0.0000E+00  0.1000E+01  0.1000E+01
    -15.638  0.0000E+00  0.0000E+00  0.1000E+01  0.1000E+01
    -15.429  0.0000E+00  0.0000E+00  0.1000E+01  0.1000E+01
    -15.220  0.0000E+00  0.0000E+00  0.1000E+01  0.1000E+01
    -15.012  0.0000E+00  0.0000E+00  0.1000E+01  0.1000E+01
    -14.803  0.0000E+00  0.0000E+00  0.1000E+01  0.1000E+01
    -14.594  0.0000E+00  0.0000E+00  0.1000E+01  0.1000E+01
    -14.386  0.0000E+00  0.0000E+00  0.1000E+01  0.1000E+01
    -14.177  0.0000E+00  0.0000E+00  0.1000E+01  0.1000E+01
    -13.968  0.0000E+00  0.0000E+00  0.1000E+01  0.1000E+01
    -13.760  0.0000E+00  0.0000E+00  0.1000E+01  0.1000E+01
    -13.551  0.0000E+00  0.0000E+00  0.1000E+01  0.1000E+01
    -13.342  0.4682E-06  0.4720E-06  0.1000E+01  0.1000E+01
    -13.134  0.4764E+00  0.4767E+00  0.1099E+01  0.1099E+01
    -12.925  0.1731E+01  0.1731E+01  0.1461E+01  0.1461E+01
    -12.716  0.7233E+00  0.7231E+00  0.1612E+01  0.1612E+01
    -12.508  0.7965E+00  0.7965E+00  0.1778E+01  0.1778E+01
    -12.299  0.3112E+01  0.3116E+01  0.2427E+01  0.2428E+01
    -12.090  0.7428E+01  0.7424E+01  0.3977E+01  0.3978E+01
    -11.882  0.1081E+00  0.1077E+00  0.4000E+01  0.4000E+01
    -11.673  0.0000E+00  0.0000E+00  0.4000E+01  0.4000E+01
    -11.464  0.0000E+00  0.0000E+00  0.4000E+01  0.4000E+01
    -11.256  0.0000E+00  0.0000E+00  0.4000E+01  0.4000E+01
    -11.047  0.0000E+00  0.0000E+00  0.4000E+01  0.4000E+01
    -10.838  0.0000E+00  0.0000E+00  0.4000E+01  0.4000E+01
    -10.629  0.0000E+00  0.0000E+00  0.4000E+01  0.4000E+01
    -10.421  0.0000E+00  0.0000E+00  0.4000E+01  0.4000E+01
    -10.212  0.0000E+00  0.0000E+00  0.4000E+01  0.4000E+01
    -10.003  0.0000E+00  0.0000E+00  0.4000E+01  0.4000E+01
     -9.795  0.0000E+00  0.0000E+00  0.4000E+01  0.4000E+01
     -9.586  0.0000E+00  0.0000E+00  0.4000E+01  0.4000E+01
     -9.377  0.0000E+00  0.0000E+00  0.4000E+01  0.4000E+01
     -9.169  0.0000E+00  0.0000E+00  0.4000E+01  0.4000E+01
     -8.960  0.0000E+00  0.0000E+00  0.4000E+01  0.4000E+01
     -8.751  0.0000E+00  0.0000E+00  0.4000E+01  0.4000E+01
     -8.543  0.0000E+00  0.0000E+00  0.4000E+01  0.4000E+01
     -8.334  0.0000E+00  0.0000E+00  0.4000E+01  0.4000E+01
     -8.125  0.0000E+00  0.0000E+00  0.4000E+01  0.4000E+01
     -7.917  0.0000E+00  0.0000E+00  0.4000E+01  0.4000E+01
     -7.708  0.0000E+00  0.0000E+00  0.4000E+01  0.4000E+01
     -7.499  0.0000E+00  0.0000E+00  0.4000E+01  0.4000E+01
     -7.291  0.0000E+00  0.0000E+00  0.4000E+01  0.4000E+01
     -7.082  0.0000E+00  0.0000E+00  0.4000E+01  0.4000E+01
     -6.873  0.1043E-05  0.1042E-05  0.4000E+01  0.4000E+01
     -6.664  0.9466E+00  0.9465E+00  0.4198E+01  0.4198E+01
     -6.456  0.1443E+01  0.1443E+01  0.4499E+01  0.4499E+01
     -6.247  0.1045E+01  0.1045E+01  0.4717E+01  0.4717E+01
     -6.038  0.2943E+01  0.2943E+01  0.5331E+01  0.5331E+01
     -5.830  0.5154E+01  0.5154E+01  0.6406E+01  0.6406E+01
     -5.621  0.2731E+01  0.2731E+01  0.6976E+01  0.6976E+01
     -5.412  0.1132E+00  0.1132E+00  0.7000E+01  0.7000E+01
     -5.204  0.0000E+00  0.0000E+00  0.7000E+01  0.7000E+01
     -4.995  0.0000E+00  0.0000E+00  0.7000E+01  0.7000E+01
     -4.786  0.0000E+00  0.0000E+00  0.7000E+01  0.7000E+01
     -4.578  0.0000E+00  0.0000E+00  0.7000E+01  0.7000E+01
     -4.369  0.0000E+00  0.0000E+00  0.7000E+01  0.7000E+01
     -4.160  0.0000E+00  0.0000E+00  0.7000E+01  0.7000E+01
     -3.952  0.0000E+00  0.0000E+00  0.7000E+01  0.7000E+01
     -3.743  0.0000E+00  0.0000E+00  0.7000E+01  0.7000E+01
     -3.534  0.0000E+00  0.0000E+00  0.7000E+01  0.7000E+01
     -3.326  0.0000E+00  0.0000E+00  0.7000E+01  0.7000E+01
     -3.117  0.0000E+00  0.0000E+00  0.7000E+01  0.7000E+01
     -2.908  0.0000E+00  0.0000E+00  0.7000E+01  0.7000E+01
     -2.700  0.0000E+00  0.0000E+00  0.7000E+01  0.7000E+01
     -2.491  0.0000E+00  0.0000E+00  0.7000E+01  0.7000E+01
     -2.282  0.0000E+00  0.0000E+00  0.7000E+01  0.7000E+01
     -2.073  0.0000E+00  0.0000E+00  0.7000E+01  0.7000E+01
     -1.865  0.0000E+00  0.0000E+00  0.7000E+01  0.7000E+01
     -1.656  0.0000E+00  0.0000E+00  0.7000E+01  0.7000E+01
     -1.447  0.0000E+00  0.0000E+00  0.7000E+01  0.7000E+01
     -1.239  0.0000E+00  0.0000E+00  0.7000E+01  0.7000E+01
     -1.030  0.0000E+00  0.0000E+00  0.7000E+01  0.7000E+01
     -0.821  0.9303E-13  0.9304E-13  0.7000E+01  0.7000E+01
     -0.613  0.2222E-01  0.2222E-01  0.7005E+01  0.7005E+01
     -0.404  0.8332E+00  0.8332E+00  0.7179E+01  0.7179E+01
     -0.195  0.1169E+01  0.1169E+01  0.7422E+01  0.7422E+01
      0.013  0.1656E+01  0.1656E+01  0.7768E+01  0.7768E+01
      0.222  0.2553E+01  0.2553E+01  0.8301E+01  0.8301E+01
      0.431  0.1031E+01  0.1031E+01  0.8516E+01  0.8516E+01
      0.639  0.9067E+00  0.9067E+00  0.8705E+01  0.8705E+01
      0.848  0.1018E+01  0.1018E+01  0.8918E+01  0.8918E+01
      1.057  0.1222E+01  0.1222E+01  0.9173E+01  0.9173E+01
      1.265  0.3332E+01  0.3333E+01  0.9868E+01  0.9868E+01
      1.474  0.4625E+01  0.4625E+01  0.1083E+02  0.1083E+02
      1.683  0.3287E+01  0.3286E+01  0.1152E+02  0.1152E+02
      1.892  0.7405E+00  0.7405E+00  0.1167E+02  0.1167E+02
      2.100  0.1741E+01  0.1742E+01  0.1204E+02  0.1204E+02
      2.309  0.1735E+01  0.1735E+01  0.1240E+02  0.1240E+02
      2.518  0.1457E+01  0.1457E+01  0.1270E+02  0.1270E+02
      2.726  0.1652E+01  0.1652E+01  0.1305E+02  0.1305E+02
      2.935  0.2610E+01  0.2609E+01  0.1359E+02  0.1359E+02
      3.144  0.2341E+01  0.2341E+01  0.1408E+02  0.1408E+02
      3.352  0.2451E+01  0.2450E+01  0.1459E+02  0.1459E+02
      3.561  0.2059E+01  0.2059E+01  0.1502E+02  0.1502E+02
      3.770  0.2982E+01  0.2983E+01  0.1564E+02  0.1564E+02
      3.978  0.1704E+01  0.1703E+01  0.1600E+02  0.1600E+02
      4.187  0.5874E-05  0.5805E-05  0.1600E+02  0.1600E+02
      4.396  0.0000E+00  0.0000E+00  0.1600E+02  0.1600E+02
      4.604  0.0000E+00  0.0000E+00  0.1600E+02  0.1600E+02
      4.813  0.0000E+00  0.0000E+00  0.1600E+02  0.1600E+02
      5.022  0.0000E+00  0.0000E+00  0.1600E+02  0.1600E+02
      5.230  0.2185E-10  0.2168E-10  0.1600E+02  0.1600E+02
      5.439  0.1807E+00  0.1805E+00  0.1604E+02  0.1604E+02
      5.648  0.1876E+01  0.1877E+01  0.1643E+02  0.1643E+02
      5.856  0.7238E+00  0.7239E+00  0.1658E+02  0.1658E+02
      6.065  0.6038E+00  0.6038E+00  0.1671E+02  0.1671E+02
      6.274  0.5749E+00  0.5749E+00  0.1683E+02  0.1683E+02
      6.483  0.5797E+00  0.5797E+00  0.1695E+02  0.1695E+02
      6.691  0.6146E+00  0.6146E+00  0.1708E+02  0.1708E+02
      6.900  0.7037E+00  0.7037E+00  0.1722E+02  0.1722E+02
      7.109  0.1824E+01  0.1824E+01  0.1760E+02  0.1760E+02
      7.317  0.2563E+01  0.2563E+01  0.1814E+02  0.1814E+02
      7.526  0.2957E+01  0.2957E+01  0.1876E+02  0.1876E+02
      7.735  0.2608E+01  0.2608E+01  0.1930E+02  0.1930E+02
      7.943  0.1014E+01  0.1014E+01  0.1951E+02  0.1951E+02
      8.152  0.5165E+00  0.5165E+00  0.1962E+02  0.1962E+02
      8.361  0.8643E+00  0.8643E+00  0.1980E+02  0.1980E+02
      8.569  0.2542E+00  0.2542E+00  0.1985E+02  0.1985E+02
      8.778  0.2332E+00  0.2332E+00  0.1990E+02  0.1990E+02
      8.987  0.3534E+00  0.3532E+00  0.1997E+02  0.1997E+02
      9.195  0.9246E+00  0.9246E+00  0.2017E+02  0.2017E+02
      9.404  0.7169E+00  0.7169E+00  0.2032E+02  0.2032E+02
      9.613  0.7970E+00  0.7971E+00  0.2048E+02  0.2048E+02
      9.821  0.5727E+00  0.5722E+00  0.2060E+02  0.2060E+02
     10.030  0.5392E+00  0.5395E+00  0.2072E+02  0.2072E+02
     10.239  0.5440E+00  0.5445E+00  0.2083E+02  0.2083E+02
     10.447  0.5856E+00  0.5853E+00  0.2095E+02  0.2095E+02
     10.656  0.1439E+01  0.1438E+01  0.2125E+02  0.2125E+02
     10.865  0.1058E+01  0.1057E+01  0.2147E+02  0.2147E+02
     11.074  0.1246E+01  0.1243E+01  0.2173E+02  0.2173E+02
     11.282  0.2778E+01  0.2770E+01  0.2231E+02  0.2231E+02
     11.491  0.1202E+01  0.1177E+01  0.2256E+02  0.2255E+02
     11.700  0.1378E+01  0.1402E+01  0.2285E+02  0.2285E+02
     11.908  0.1081E+01  0.9676E+00  0.2308E+02  0.2305E+02
     12.117  0.1242E+01  0.1318E+01  0.2334E+02  0.2332E+02
     12.326  0.1126E+01  0.1127E+01  0.2357E+02  0.2356E+02
     12.534  0.6634E+00  0.6945E+00  0.2371E+02  0.2370E+02
     12.743  0.4005E+00  0.3500E+00  0.2379E+02  0.2378E+02
     12.952  0.2189E+00  0.2507E+00  0.2384E+02  0.2383E+02
     13.160  0.1378E+00  0.1122E+00  0.2387E+02  0.2385E+02
     13.369  0.9024E-01  0.1046E+00  0.2389E+02  0.2388E+02
     13.578  0.8674E-01  0.8608E-01  0.2390E+02  0.2389E+02
     13.786  0.9054E-01  0.8949E-01  0.2392E+02  0.2391E+02
     13.995  0.2472E+00  0.3131E+00  0.2397E+02  0.2398E+02
     14.204  0.1233E+00  0.1090E+00  0.2400E+02  0.2400E+02
     14.412  0.1960E-02  0.0000E+00  0.2400E+02  0.2400E+02
     14.621  0.0000E+00  0.0000E+00  0.2400E+02  0.2400E+02
     14.830  0.0000E+00  0.0000E+00  0.2400E+02  0.2400E+02
     15.039  0.0000E+00  0.0000E+00  0.2400E+02  0.2400E+02
     15.247  0.0000E+00  0.0000E+00  0.2400E+02  0.2400E+02
     15.456  0.0000E+00  0.0000E+00  0.2400E+02  0.2400E+02
     15.665  0.0000E+00  0.0000E+00  0.2400E+02  0.2400E+02
     15.873  0.0000E+00  0.0000E+00  0.2400E+02  0.2400E+02
     16.082  0.0000E+00  0.0000E+00  0.2400E+02  0.2400E+02
     16.291  0.0000E+00  0.0000E+00  0.2400E+02  0.2400E+02
     16.499  0.0000E+00  0.0000E+00  0.2400E+02  0.2400E+02
     16.708  0.0000E+00  0.0000E+00  0.2400E+02  0.2400E+02
     16.917  0.0000E+00  0.0000E+00  0.2400E+02  0.2400E+02
     17.125  0.0000E+00  0.0000E+00  0.2400E+02  0.2400E+02
     17.334  0.0000E+00  0.0000E+00  0.2400E+02  0.2400E+02
     17.543  0.0000E+00  0.0000E+00  0.2400E+02  0.2400E+02
     17.751  0.0000E+00  0.0000E+00  0.2400E+02  0.2400E+02
     17.960  0.0000E+00  0.0000E+00  0.2400E+02  0.2400E+02
     18.169  0.0000E+00  0.0000E+00  0.2400E+02  0.2400E+02
     18.377  0.0000E+00  0.0000E+00  0.2400E+02  0.2400E+02
     18.586  0.0000E+00  0.0000E+00  0.2400E+02  0.2400E+02
     18.795  0.0000E+00  0.0000E+00  0.2400E+02  0.2400E+02
     19.003  0.0000E+00  0.0000E+00  0.2400E+02  0.2400E+02
     19.212  0.0000E+00  0.0000E+00  0.2400E+02  0.2400E+02
     19.421  0.0000E+00  0.0000E+00  0.2400E+02  0.2400E+02
     19.630  0.0000E+00  0.0000E+00  0.2400E+02  0.2400E+02
     19.838  0.0000E+00  0.0000E+00  0.2400E+02  0.2400E+02
     20.047  0.0000E+00  0.0000E+00  0.2400E+02  0.2400E+02
     20.256  0.0000E+00  0.0000E+00  0.2400E+02  0.2400E+02
     20.464  0.0000E+00  0.0000E+00  0.2400E+02  0.2400E+02
     20.673  0.0000E+00  0.0000E+00  0.2400E+02  0.2400E+02
     20.882  0.0000E+00  0.0000E+00  0.2400E+02  0.2400E+02
     21.090  0.0000E+00  0.0000E+00  0.2400E+02  0.2400E+02
     21.299  0.0000E+00  0.0000E+00  0.2400E+02  0.2400E+02
     21.508  0.0000E+00  0.0000E+00  0.2400E+02  0.2400E+02
     21.716  0.0000E+00  0.0000E+00  0.2400E+02  0.2400E+02
     21.925  0.0000E+00  0.0000E+00  0.2400E+02  0.2400E+02
     22.134  0.0000E+00  0.0000E+00  0.2400E+02  0.2400E+02
     22.342  0.0000E+00  0.0000E+00  0.2400E+02  0.2400E+02
     22.551  0.0000E+00  0.0000E+00  0.2400E+02  0.2400E+02
     22.760  0.0000E+00  0.0000E+00  0.2400E+02  0.2400E+02
     22.968  0.0000E+00  0.0000E+00  0.2400E+02  0.2400E+02
     23.177  0.0000E+00  0.0000E+00  0.2400E+02  0.2400E+02
     23.386  0.0000E+00  0.0000E+00  0.2400E+02  0.2400E+02
     23.595  0.0000E+00  0.0000E+00  0.2400E+02  0.2400E+02
     23.803  0.0000E+00  0.0000E+00  0.2400E+02  0.2400E+02
     24.012  0.0000E+00  0.0000E+00  0.2400E+02  0.2400E+02
     24.221  0.0000E+00  0.0000E+00  0.2400E+02  0.2400E+02
     24.429  0.0000E+00  0.0000E+00  0.2400E+02  0.2400E+02
     24.638  0.0000E+00  0.0000E+00  0.2400E+02  0.2400E+02
     24.847  0.0000E+00  0.0000E+00  0.2400E+02  0.2400E+02
     25.055  0.0000E+00  0.0000E+00  0.2400E+02  0.2400E+02
     25.264  0.0000E+00  0.0000E+00  0.2400E+02  0.2400E+02
     25.473  0.0000E+00  0.0000E+00  0.2400E+02  0.2400E+02
     25.681  0.0000E+00  0.0000E+00  0.2400E+02  0.2400E+02
     25.890  0.0000E+00  0.0000E+00  0.2400E+02  0.2400E+02
     26.099  0.0000E+00  0.0000E+00  0.2400E+02  0.2400E+02
     26.307  0.0000E+00  0.0000E+00  0.2400E+02  0.2400E+02
     26.516  0.0000E+00  0.0000E+00  0.2400E+02  0.2400E+02
     26.725  0.0000E+00  0.0000E+00  0.2400E+02  0.2400E+02
     26.933  0.0000E+00  0.0000E+00  0.2400E+02  0.2400E+02
     27.142  0.0000E+00  0.0000E+00  0.2400E+02  0.2400E+02
     27.351  0.0000E+00  0.0000E+00  0.2400E+02  0.2400E+02
     27.559  0.0000E+00  0.0000E+00  0.2400E+02  0.2400E+02
     27.768  0.0000E+00  0.0000E+00  0.2400E+02  0.2400E+02
     27.977  0.0000E+00  0.0000E+00  0.2400E+02  0.2400E+02
     28.186  0.0000E+00  0.0000E+00  0.2400E+02  0.2400E+02
     28.394  0.0000E+00  0.0000E+00  0.2400E+02  0.2400E+02
     28.603  0.0000E+00  0.0000E+00  0.2400E+02  0.2400E+02
     28.812  0.0000E+00  0.0000E+00  0.2400E+02  0.2400E+02
     29.020  0.0000E+00  0.0000E+00  0.2400E+02  0.2400E+02
     29.229  0.0000E+00  0.0000E+00  0.2400E+02  0.2400E+02
     29.438  0.0000E+00  0.0000E+00  0.2400E+02  0.2400E+02
     29.646  0.0000E+00  0.0000E+00  0.2400E+02  0.2400E+02
     29.855  0.0000E+00  0.0000E+00  0.2400E+02  0.2400E+02
     30.064  0.0000E+00  0.0000E+00  0.2400E+02  0.2400E+02
     30.272  0.0000E+00  0.0000E+00  0.2400E+02  0.2400E+02
     30.481  0.0000E+00  0.0000E+00  0.2400E+02  0.2400E+02
     30.690  0.0000E+00  0.0000E+00  0.2400E+02  0.2400E+02
     30.898  0.0000E+00  0.0000E+00  0.2400E+02  0.2400E+02
     31.107  0.0000E+00  0.0000E+00  0.2400E+02  0.2400E+02
     31.316  0.0000E+00  0.0000E+00  0.2400E+02  0.2400E+02
     31.524  0.0000E+00  0.0000E+00  0.2400E+02  0.2400E+02
     31.733  0.0000E+00  0.0000E+00  0.2400E+02  0.2400E+02
     31.942  0.0000E+00  0.0000E+00  0.2400E+02  0.2400E+02
     32.151  0.0000E+00  0.0000E+00  0.2400E+02  0.2400E+02
     32.359  0.0000E+00  0.0000E+00  0.2400E+02  0.2400E+02
     32.568  0.0000E+00  0.0000E+00  0.2400E+02  0.2400E+02
     32.777  0.0000E+00  0.0000E+00  0.2400E+02  0.2400E+02
     32.985  0.0000E+00  0.0000E+00  0.2400E+02  0.2400E+02
     33.194  0.0000E+00  0.0000E+00  0.2400E+02  0.2400E+02
     33.403  0.0000E+00  0.0000E+00  0.2400E+02  0.2400E+02
     33.611  0.0000E+00  0.0000E+00  0.2400E+02  0.2400E+02
     33.820  0.0000E+00  0.0000E+00  0.2400E+02  0.2400E+02
     34.029  0.0000E+00  0.0000E+00  0.2400E+02  0.2400E+02
     34.237  0.0000E+00  0.0000E+00  0.2400E+02  0.2400E+02
     34.446  0.0000E+00  0.0000E+00  0.2400E+02  0.2400E+02
     34.655  0.0000E+00  0.0000E+00  0.2400E+02  0.2400E+02
     34.863  0.0000E+00  0.0000E+00  0.2400E+02  0.2400E+02
     35.072  0.0000E+00  0.0000E+00  0.2400E+02  0.2400E+02
     35.281  0.0000E+00  0.0000E+00  0.2400E+02  0.2400E+02
     35.489  0.0000E+00  0.0000E+00  0.2400E+02  0.2400E+02
     35.698  0.0000E+00  0.0000E+00  0.2400E+02  0.2400E+02
     35.907  0.0000E+00  0.0000E+00  0.2400E+02  0.2400E+02
     36.115  0.0000E+00  0.0000E+00  0.2400E+02  0.2400E+02
     36.324  0.0000E+00  0.0000E+00  0.2400E+02  0.2400E+02
     36.533  0.0000E+00  0.0000E+00  0.2400E+02  0.2400E+02
     36.742  0.0000E+00  0.0000E+00  0.2400E+02  0.2400E+02
     36.950  0.0000E+00  0.0000E+00  0.2400E+02  0.2400E+02
     37.159  0.0000E+00  0.0000E+00  0.2400E+02  0.2400E+02
     37.368  0.0000E+00  0.0000E+00  0.2400E+02  0.2400E+02
     37.576  0.0000E+00  0.0000E+00  0.2400E+02  0.2400E+02
     37.785  0.0000E+00  0.0000E+00  0.2400E+02  0.2400E+02
     37.994  0.0000E+00  0.0000E+00  0.2400E+02  0.2400E+02
     38.202  0.0000E+00  0.0000E+00  0.2400E+02  0.2400E+02
     38.411  0.0000E+00  0.0000E+00  0.2400E+02  0.2400E+02
     38.620  0.0000E+00  0.0000E+00  0.2400E+02  0.2400E+02
     38.828  0.0000E+00  0.0000E+00  0.2400E+02  0.2400E+02
     39.037  0.0000E+00  0.0000E+00  0.2400E+02  0.2400E+02
     39.246  0.0000E+00  0.0000E+00  0.2400E+02  0.2400E+02
     39.454  0.0000E+00  0.0000E+00  0.2400E+02  0.2400E+02
     39.663  0.0000E+00  0.0000E+00  0.2400E+02  0.2400E+02
     39.872  0.0000E+00  0.0000E+00  0.2400E+02  0.2400E+02
     40.080  0.0000E+00  0.0000E+00  0.2400E+02  0.2400E+02
     40.289  0.0000E+00  0.0000E+00  0.2400E+02  0.2400E+02
     40.498  0.0000E+00  0.0000E+00  0.2400E+02  0.2400E+02
     40.706  0.0000E+00  0.0000E+00  0.2400E+02  0.2400E+02
     40.915  0.0000E+00  0.0000E+00  0.2400E+02  0.2400E+02
     41.124  0.0000E+00  0.0000E+00  0.2400E+02  0.2400E+02
     41.333  0.0000E+00  0.0000E+00  0.2400E+02  0.2400E+02
     41.541  0.0000E+00  0.0000E+00  0.2400E+02  0.2400E+02
     41.750  0.0000E+00  0.0000E+00  0.2400E+02  0.2400E+02
     41.959  0.0000E+00  0.0000E+00  0.2400E+02  0.2400E+02
     42.167  0.0000E+00  0.0000E+00  0.2400E+02  0.2400E+02
     42.376  0.0000E+00  0.0000E+00  0.2400E+02  0.2400E+02
     42.585  0.0000E+00  0.0000E+00  0.2400E+02  0.2400E+02
     42.58463734    -20.02017808  301      4.21310256      1.00000000
    -20.020  0.5217E+01  0.5217E+01  0.4155E-04  0.4154E-04  0.2795E-04  0.2796E-04  0.4429E-04  0.4431E-04  0.1264E-06  0.1263E-06  0.5274E-07  0.5270E-07  0.3040E-04  0.3040E-04  0.8763E-07  0.8765E-07  0.2053E-04  0.2053E-04  0.7533E-06  0.7531E-06  0.3791E-09  0.3841E-09  0.3565E-06  0.3565E-06  0.1414E-05  0.1414E-05  0.4212E-06  0.4211E-06  0.1373E-07  0.1372E-07  0.1368E-05  0.1368E-05
    -19.811  0.0000E+00  0.0000E+00  0.0000E+00  0.0000E+00  0.0000E+00  0.0000E+00  0.0000E+00  0.0000E+00  0.0000E+00  0.0000E+00  0.0000E+00  0.0000E+00  0.0000E+00  0.0000E+00  0.0000E+00  0.0000E+00  0.0000E+00  0.0000E+00  0.0000E+00  0.0000E+00  0.0000E+00  0.0000E+00  0.0000E+00  0.0000E+00  0.0000E+00  0.0000E+00  0.0000E+00  0.0000E+00  0.0000E+00  0.0000E+00  0.0000E+00  0.0000E+00
    -19.603  0.0000E+00  0.0000E+00  0.0000E+00  0.0000E+00  0.0000E+00  0.0000E+00  0.0000E+00  0.0000E+00  0.0000E+00  0.0000E+00  0.0000E+00  0.0000E+00  0.0000E+00  0.0000E+00  0.0000E+00  0.0000E+00  0.0000E+00  0.0000E+00  0.0000E+00  0.0000E+00  0.0000E+00  0.0000E+00  0.0000E+00  0.0000E+00  0.0000E+00  0.0000E+00  0.0000E+00  0.0000E+00  0.0000E+00  0.0000E+00  0.0000E+00  0.0000E+00
    -19.394  0.0000E+00  0.0000E+00  0.0000E+00  0.0000E+00  0.0000E+00  0.0000E+00  0.0000E+00  0.0000E+00  0.0000E+00  0.0000E+00  0.0000E+00  0.0000E+00  0.0000E+00  0.0000E+00  0.0000E+00  0.0000E+00  0.0000E+00  0.0000E+00  0.0000E+00  0.0000E+00  0.0000E+00  0.0000E+00  0.0000E+00  0.0000E+00  0.0000E+00  0.0000E+00  0.0000E+00  0.0000E+00  0.0000E+00  0.0000E+00  0.0000E+00  0.0000E+00
    -19.185  0.0000E+00  0.0000E+00  0.0000E+00  0.0000E+00  0.0000E+00  0.0000E+00  0.0000E+00  0.0000E+00  0.0000E+00  0.0000E+00  0.0000E+00  0.0000E+00  0.0000E+00  0.0000E+00  0.0000E+00  0.0000E+00  0.0000E+00  0.0000E+00  0.0000E+00  0.0000E+00  0.0000E+00  0.0000E+00  0.0000E+00  0.0000E+00  0.0000E+00  0.0000E+00  0.0000E+00  0.0000E+00  0.0000E+00  0.0000E+00  0.0000E+00  0.0000E+00
    -18.977  0.0000E+00  0.0000E+00  0.0000E+00  0.0000E+00  0.0000E+00  0.0000E+00  0.0000E+00  0.0000E+00  0.0000E+00  0.0000E+00  0.0000E+00  0.0000E+00  0.0000E+00  0.0000E+00  0.0000E+00  0.0000E+00  0.0000E+00  0.0000E+00  0.0000E+00  0.0000E+00  0.0000E+00  0.0000E+00  0.0000E+00  0.0000E+00  0.0000E+00  0.0000E+00  0.0000E+00  0.0000E+00  0.0000E+00  0.0000E+00  0.0000E+00  0.0000E+00
    -18.768  0.0000E+00  0.0000E+00  0.0000E+00  0.0000E+00  0.0000E+00  0.0000E+00  0.0000E+00  0.0000E+00  0.0000E+00  0.0000E+00  0.0000E+00  0.0000E+00  0.0000E+00  0.0000E+00  0.0000E+00  0.0000E+00  0.0000E+00  0.0000E+00  0.0000E+00  0.0000E+00  0.0000E+00  0.0000E+00  0.0000E+00  0.0000E+00  0.0000E+00  0.0000E+00  0.0000E+00  0.0000E+00  0.0000E+00  0.0000E+00  0.0000E+00  0.0000E+00
    -18.559  0.0000E+00  0.0000E+00  0.0000E+00  0.0000E+00  0.0000E+00  0.0000E+00  0.0000E+00  0.0000E+00  0.0000E+00  0.0000E+00  0.0000E+00  0.0000E+00  0.0000E+00  0.0000E+00  0.0000E+00  0.0000E+00  0.0000E+00  0.0000E+00  0.0000E+00  0.0000E+00  0.0000E+00  0.0000E+00  0.0000E+00  0.0000E+00  0.0000E+00  0.0000E+00  0.0000E+00  0.0000E+00  0.0000E+00  0.0000E+00  0.0000E+00  0.0000E+00
    -18.351  0.0000E+00  0.0000E+00  0.0000E+00  0.0000E+00  0.0000E+00  0.0000E+00  0.0000E+00  0.0000E+00  0.0000E+00  0.0000E+00  0.0000E+00  0.0000E+00  0.0000E+00  0.0000E+00  0.0000E+00  0.0000E+00  0.0000E+00  0.0000E+00  0.0000E+00  0.0000E+00  0.0000E+00  0.0000E+00  0.0000E+00  0.0000E+00  0.0000E+00  0.0000E+00  0.0000E+00  0.0000E+00  0.0000E+00  0.0000E+00  0.0000E+00  0.0000E+00
    -18.142  0.0000E+00  0.0000E+00  0.0000E+00  0.0000E+00  0.0000E+00  0.0000E+00  0.0000E+00  0.0000E+00  0.0000E+00  0.0000E+00  0.0000E+00  0.0000E+00  0.0000E+00  0.0000E+00  0.0000E+00  0.0000E+00  0.0000E+00  0.0000E+00  0.0000E+00  0.0000E+00  0.0000E+00  0.0000E+00  0.0000E+00  0.0000E+00  0.0000E+00  0.0000E+00  0.0000E+00  0.0000E+00  0.0000E+00  0.0000E+00  0.0000E+00  0.0000E+00
    -17.933  0.0000E+00  0.0000E+00  0.0000E+00  0.0000E+00  0.0000E+00  0.0000E+00  0.0000E+00  0.0000E+00  0.0000E+00  0.0000E+00  0.0000E+00  0.0000E+00  0.0000E+00  0.0000E+00  0.0000E+00  0.0000E+00  0.0000E+00  0.0000E+00  0.0000E+00  0.0000E+00  0.0000E+00  0.0000E+00  0.0000E+00  0.0000E+00  0.0000E+00  0.0000E+00  0.0000E+00  0.0000E+00  0.0000E+00  0.0000E+00  0.0000E+00  0.0000E+00
    -17.725  0.0000E+00  0.0000E+00  0.0000E+00  0.0000E+00  0.0000E+00  0.0000E+00  0.0000E+00  0.0000E+00  0.0000E+00  0.0000E+00  0.0000E+00  0.0000E+00  0.0000E+00  0.0000E+00  0.0000E+00  0.0000E+00  0.0000E+00  0.0000E+00  0.0000E+00  0.0000E+00  0.0000E+00  0.0000E+00  0.0000E+00  0.0000E+00  0.0000E+00  0.0000E+00  0.0000E+00  0.0000E+00  0.0000E+00  0.0000E+00  0.0000E+00  0.0000E+00
    -17.516  0.0000E+00  0.0000E+00  0.0000E+00  0.0000E+00  0.0000E+00  0.0000E+00  0.0000E+00  0.0000E+00  0.0000E+00  0.0000E+00  0.0000E+00  0.0000E+00  0.0000E+00  0.0000E+00  0.0000E+00  0.0000E+00  0.0000E+00  0.0000E+00  0.0000E+00  0.0000E+00  0.0000E+00  0.0000E+00  0.0000E+00  0.0000E+00  0.0000E+00  0.0000E+00  0.0000E+00  0.0000E+00  0.0000E+00  0.0000E+00  0.0000E+00  0.0000E+00
    -17.307  0.0000E+00  0.0000E+00  0.0000E+00  0.0000E+00  0.0000E+00  0.0000E+00  0.0000E+00  0.0000E+00  0.0000E+00  0.0000E+00  0.0000E+00  0.0000E+00  0.0000E+00  0.0000E+00  0.0000E+00  0.0000E+00  0.0000E+00  0.0000E+00  0.0000E+00  0.0000E+00  0.0000E+00  0.0000E+00  0.0000E+00  0.0000E+00  0.0000E+00  0.0000E+00  0.0000E+00  0.0000E+00  0.0000E+00  0.0000E+00  0.0000E+00  0.0000E+00
    -17.099  0.0000E+00  0.0000E+00  0.0000E+00  0.0000E+00  0.0000E+00  0.0000E+00  0.0000E+00  0.0000E+00  0.0000E+00  0.0000E+00  0.0000E+00  0.0000E+00  0.0000E+00  0.0000E+00  0.0000E+00  0.0000E+00  0.0000E+00  0.0000E+00  0.0000E+00  0.0000E+00  0.0000E+00  0.0000E+00  0.0000E+00  0.0000E+00  0.0000E+00  0.0000E+00  0.0000E+00  0.0000E+00  0.0000E+00  0.0000E+00  0.0000E+00  0.0000E+00
    -16.890  0.0000E+00  0.0000E+00  0.0000E+00  0.0000E+00  0.0000E+00  0.0000E+00  0.0000E+00  0.0000E+00  0.0000E+00  0.0000E+00  0.0000E+00  0.0000E+00  0.0000E+00  0.0000E+00  0.0000E+00  0.0000E+00  0.0000E+00  0.0000E+00  0.0000E+00  0.0000E+00  0.0000E+00  0.0000E+00  0.0000E+00  0.0000E+00  0.0000E+00  0.0000E+00  0.0000E+00  0.0000E+00  0.0000E+00  0.0000E+00  0.0000E+00  0.0000E+00
    -16.681  0.0000E+00  0.0000E+00  0.0000E+00  0.0000E+00  0.0000E+00  0.0000E+00  0.0000E+00  0.0000E+00  0.0000E+00  0.0000E+00  0.0000E+00  0.0000E+00  0.0000E+00  0.0000E+00  0.0000E+00  0.0000E+00  0.0000E+00  0.0000E+00  0.0000E+00  0.0000E+00  0.0000E+00  0.0000E+00  0.0000E+00  0.0000E+00  0.0000E+00  0.0000E+00  0.0000E+00  0.0000E+00  0.0000E+00  0.0000E+00  0.0000E+00  0.0000E+00
    -16.473  0.0000E+00  0.0000E+00  0.0000E+00  0.0000E+00  0.0000E+00  0.0000E+00  0.0000E+00  0.0000E+00  0.0000E+00  0.0000E+00  0.0000E+00  0.0000E+00  0.0000E+00  0.0000E+00  0.0000E+00  0.0000E+00  0.0000E+00  0.0000E+00  0.0000E+00  0.0000E+00  0.0000E+00  0.0000E+00  0.0000E+00  0.0000E+00  0.0000E+00  0.0000E+00  0.0000E+00  0.0000E+00  0.0000E+00  0.0000E+00  0.0000E+00  0.0000E+00
    -16.264  0.0000E+00  0.0000E+00  0.0000E+00  0.0000E+00  0.0000E+00  0.0000E+00  0.0000E+00  0.0000E+00  0.0000E+00  0.0000E+00  0.0000E+00  0.0000E+00  0.0000E+00  0.0000E+00  0.0000E+00  0.0000E+00  0.0000E+00  0.0000E+00  0.0000E+00  0.0000E+00  0.0000E+00  0.0000E+00  0.0000E+00  0.0000E+00  0.0000E+00  0.0000E+00  0.0000E+00  0.0000E+00  0.0000E+00  0.0000E+00  0.0000E+00  0.0000E+00
    -16.055  0.0000E+00  0.0000E+00  0.0000E+00  0.0000E+00  0.0000E+00  0.0000E+00  0.0000E+00  0.0000E+00  0.0000E+00  0.0000E+00  0.0000E+00  0.0000E+00  0.0000E+00  0.0000E+00  0.0000E+00  0.0000E+00  0.0000E+00  0.0000E+00  0.0000E+00  0.0000E+00  0.0000E+00  0.0000E+00  0.0000E+00  0.0000E+00  0.0000E+00  0.0000E+00  0.0000E+00  0.0000E+00  0.0000E+00  0.0000E+00  0.0000E+00  0.0000E+00
    -15.847  0.0000E+00  0.0000E+00  0.0000E+00  0.0000E+00  0.0000E+00  0.0000E+00  0.0000E+00  0.0000E+00  0.0000E+00  0.0000E+00  0.0000E+00  0.0000E+00  0.0000E+00  0.0000E+00  0.0000E+00  0.0000E+00  0.0000E+00  0.0000E+00  0.0000E+00  0.0000E+00  0.0000E+00  0.0000E+00  0.0000E+00  0.0000E+00  0.0000E+00  0.0000E+00  0.0000E+00  0.0000E+00  0.0000E+00  0.0000E+00  0.0000E+00  0.0000E+00
    -15.638  0.0000E+00  0.0000E+00  0.0000E+00  0.0000E+00  0.0000E+00  0.0000E+00  0.0000E+00  0.0000E+00  0.0000E+00  0.0000E+00  0.0000E+00  0.0000E+00  0.0000E+00  0.0000E+00  0.0000E+00  0.0000E+00  0.0000E+00  0.0000E+00  0.0000E+00  0.0000E+00  0.0000E+00  0.0000E+00  0.0000E+00  0.0000E+00  0.0000E+00  0.0000E+00  0.0000E+00  0.0000E+00  0.0000E+00  0.0000E+00  0.0000E+00  0.0000E+00
    -15.429  0.0000E+00  0.0000E+00  0.0000E+00  0.0000E+00  0.0000E+00  0.0000E+00  0.0000E+00  0.0000E+00  0.0000E+00  0.0000E+00  0.0000E+00  0.0000E+00  0.0000E+00  0.0000E+00  0.0000E+00  0.0000E+00  0.0000E+00  0.0000E+00  0.0000E+00  0.0000E+00  0.0000E+00  0.0000E+00  0.0000E+00  0.0000E+00  0.0000E+00  0.0000E+00  0.0000E+00  0.0000E+00  0.0000E+00  0.0000E+00  0.0000E+00  0.0000E+00
    -15.220  0.0000E+00  0.0000E+00  0.0000E+00  0.0000E+00  0.0000E+00  0.0000E+00  0.0000E+00  0.0000E+00  0.0000E+00  0.0000E+00  0.0000E+00  0.0000E+00  0.0000E+00  0.0000E+00  0.0000E+00  0.0000E+00  0.0000E+00  0.0000E+00  0.0000E+00  0.0000E+00  0.0000E+00  0.0000E+00  0.0000E+00  0.0000E+00  0.0000E+00  0.0000E+00  0.0000E+00  0.0000E+00  0.0000E+00  0.0000E+00  0.0000E+00  0.0000E+00
    -15.012  0.0000E+00  0.0000E+00  0.0000E+00  0.0000E+00  0.0000E+00  0.0000E+00  0.0000E+00  0.0000E+00  0.0000E+00  0.0000E+00  0.0000E+00  0.0000E+00  0.0000E+00  0.0000E+00  0.0000E+00  0.0000E+00  0.0000E+00  0.0000E+00  0.0000E+00  0.0000E+00  0.0000E+00  0.0000E+00  0.0000E+00  0.0000E+00  0.0000E+00  0.0000E+00  0.0000E+00  0.0000E+00  0.0000E+00  0.0000E+00  0.0000E+00  0.0000E+00
    -14.803  0.0000E+00  0.0000E+00  0.0000E+00  0.0000E+00  0.0000E+00  0.0000E+00  0.0000E+00  0.0000E+00  0.0000E+00  0.0000E+00  0.0000E+00  0.0000E+00  0.0000E+00  0.0000E+00  0.0000E+00  0.0000E+00  0.0000E+00  0.0000E+00  0.0000E+00  0.0000E+00  0.0000E+00  0.0000E+00  0.0000E+00  0.0000E+00  0.0000E+00  0.0000E+00  0.0000E+00  0.0000E+00  0.0000E+00  0.0000E+00  0.0000E+00  0.0000E+00
    -14.594  0.0000E+00  0.0000E+00  0.0000E+00  0.0000E+00  0.0000E+00  0.0000E+00  0.0000E+00  0.0000E+00  0.0000E+00  0.0000E+00  0.0000E+00  0.0000E+00  0.0000E+00  0.0000E+00  0.0000E+00  0.0000E+00  0.0000E+00  0.0000E+00  0.0000E+00  0.0000E+00  0.0000E+00  0.0000E+00  0.0000E+00  0.0000E+00  0.0000E+00  0.0000E+00  0.0000E+00  0.0000E+00  0.0000E+00  0.0000E+00  0.0000E+00  0.0000E+00
    -14.386  0.0000E+00  0.0000E+00  0.0000E+00  0.0000E+00  0.0000E+00  0.0000E+00  0.0000E+00  0.0000E+00  0.0000E+00  0.0000E+00  0.0000E+00  0.0000E+00  0.0000E+00  0.0000E+00  0.0000E+00  0.0000E+00  0.0000E+00  0.0000E+00  0.0000E+00  0.0000E+00  0.0000E+00  0.0000E+00  0.0000E+00  0.0000E+00  0.0000E+00  0.0000E+00  0.0000E+00  0.0000E+00  0.0000E+00  0.0000E+00  0.0000E+00  0.0000E+00
    -14.177  0.0000E+00  0.0000E+00  0.0000E+00  0.0000E+00  0.0000E+00  0.0000E+00  0.0000E+00  0.0000E+00  0.0000E+00  0.0000E+00  0.0000E+00  0.0000E+00  0.0000E+00  0.0000E+00  0.0000E+00  0.0000E+00  0.0000E+00  0.0000E+00  0.0000E+00  0.0000E+00  0.0000E+00  0.0000E+00  0.0000E+00  0.0000E+00  0.0000E+00  0.0000E+00  0.0000E+00  0.0000E+00  0.0000E+00  0.0000E+00  0.0000E+00  0.0000E+00