    5    5    1    2
  0.1303874E+02  0.4024716E-09  0.4024716E-09  0.4024716E-09  0.5000000E-15
  1.000000000000000E-004
  CAR 
 Perovskite (band)                       
   32  300   24
 
  0.0000000E+00  0.0000000E+00  0.0000000E+00  0.3333333E-02
   1      -20.848930    -20.848918
   2      -12.986312    -12.986372
   3      -12.298414    -12.298485
   4      -12.298414    -12.298485
   5       -6.035842     -6.035835
   6       -6.035842     -6.035835
   7       -6.035842     -6.035835
   8        1.551574      1.551548
   9        1.551574      1.551548
  10        1.551574      1.551548
  11        2.764598      2.764523
  12        2.764598      2.764523
  13        2.764598      2.764523
  14        3.743119      3.743054
  15        3.743119      3.743054
  16        3.743119      3.743054
  17        5.457293      5.457335
  18        5.457293      5.457335
  19        5.457294      5.457335
  20        7.416279      7.416301
  21        7.416279      7.416301
  22        8.994272      8.994298
  23        8.994272      8.994299
  24       11.147276     11.141723
 
  0.0000000E+00  0.1020408E-01  0.0000000E+00  0.3333333E-02
   1      -20.848825    -20.848812
   2      -12.986325    -12.986385
   3      -12.298457    -12.298528
   4      -12.298382    -12.298453
   5       -6.035682     -6.035674
   6       -6.035682     -6.035674
   7       -6.035438     -6.035430
   8        1.549806      1.549780
   9        1.551330      1.551305
  10        1.551330      1.551305
  11        2.763280      2.763205
  12        2.763280      2.763205
  13        2.763704      2.763629
  14        3.739958      3.739893
  15        3.742168      3.742102
  16        3.742167      3.742102
  17        5.457406      5.457448
  18        5.459667      5.459709
  19        5.459667      5.459709
  20        7.416285      7.416307
  21        7.419664      7.419686
  22        8.996177      8.996203
  23        8.996239      8.996266
  24       11.143291     11.141278
 
  0.0000000E+00  0.2040816E-01  0.0000000E+00  0.3333333E-02
   1      -20.848519    -20.848507
   2      -12.986440    -12.986499
   3      -12.298755    -12.298825
   4      -12.298559    -12.298629
   5       -6.035214     -6.035207
   6       -6.035214     -6.035207
   7       -6.034279     -6.034272
   8        1.544505      1.544479
   9        1.550599      1.550573
  10        1.550599      1.550573
  11        2.759327      2.759252
  12        2.759327      2.759252
  13        2.760976      2.760901
  14        3.730498      3.730432
  15        3.739323      3.739257
  16        3.739323      3.739258
  17        5.457744      5.457785
  18        5.466749      5.466791
  19        5.466749      5.466791
  20        7.416293      7.416315
  21        7.429748      7.429770
  22        9.001860      9.001886
  23        9.002124      9.002150
  24       11.170157     11.168147
 
  0.0000000E+00  0.3061224E-01  0.0000000E+00  0.3333333E-02
   1      -20.847996    -20.847984
   2      -12.986548    -12.986607
   3      -12.299000    -12.299070
   4      -12.298536    -12.298606
   5       -6.034436     -6.034428
   6       -6.034436     -6.034428
   7       -6.032270     -6.032263
   8        1.535709      1.535684
   9        1.549373      1.549347
  10        1.549373      1.549347
  11        2.752807      2.752733
  12        2.752807      2.752733
  13        2.756528      2.756453
  14        3.714950      3.714885
  15        3.734650      3.734585
  16        3.734651      3.734585
  17        5.458306      5.458348
  18        5.478459      5.478500
  19        5.478459      5.478500
  20        7.416302      7.416324
  21        7.446397      7.446419
  22        9.011345      9.011370
  23        9.011932      9.011958
  24       11.163906     11.162751
 
  0.0000000E+00  0.4081633E-01  0.0000000E+00  0.3333333E-02
   1      -20.847266    -20.847254
   2      -12.986717    -12.986776
   3      -12.299515    -12.299585
   4      -12.298322    -12.298392
   5       -6.033338     -6.033330
   6       -6.033338     -6.033330
   7       -6.029477     -6.029470
   8        1.523447      1.523421
   9        1.547659      1.547633
  10        1.547659      1.547633
  11        2.743762      2.743688
  12        2.743762      2.743689
  13        2.750346      2.750272
  14        3.693547      3.693482
  15        3.728228      3.728163
  16        3.728228      3.728163
  17        5.459085      5.459127
  18        5.494644      5.494684
  19        5.494644      5.494684
  20        7.416333      7.416355
  21        7.469341      7.469363
  22        9.024566      9.024592
  23        9.025598      9.025624
  24       11.184424     11.257539
 
  0.0000000E+00  0.5102041E-01  0.0000000E+00  0.3333333E-02
   1      -20.846323    -20.846311
   2      -12.986910    -12.986970
   3      -12.299800    -12.299870
   4      -12.298046    -12.298116
   5       -6.031911     -6.031903
   6       -6.031911     -6.031903
   7       -6.025892     -6.025885
   8        1.507777      1.507752
   9        1.545445      1.545419
  10        1.545445      1.545419
  11        2.732337      2.732264
  12        2.732337      2.732264
  13        2.742471      2.742397
  14        3.666620      3.666556
  15        3.720188      3.720124
  16        3.720188      3.720124
  17        5.460090      5.460132
  18        5.515103      5.515143
  19        5.515103      5.515143
  20        7.416375      7.416397
  21        7.498256      7.498277
  22        9.041469      9.041494
  23        9.043140      9.043166
  24       11.203825     11.202465
 
  0.0000000E+00  0.6122449E-01  0.0000000E+00  0.3333333E-02
   1      -20.845174    -20.845162
   2      -12.987178    -12.987238
   3      -12.299995    -12.300065
   4      -12.297710    -12.297780
   5       -6.030177     -6.030169
   6       -6.030177     -6.030169
   7       -6.021529     -6.021521
   8        1.488778      1.488753
   9        1.542724      1.542698
  10        1.542724      1.542698
  11        2.718637      2.718564
  12        2.718637      2.718564
  13        2.732953      2.732879
  14        3.634576      3.634511
  15        3.710650      3.710586
  16        3.710652      3.710586
  17        5.461311      5.461353
  18        5.539604      5.539642
  19        5.539604      5.539642
  20        7.416426      7.416447
  21        7.532738      7.532759
  22        9.061981      9.062006
  23        9.064485      9.064511
  24       11.229462     11.254373
 
  0.0000000E+00  0.7142857E-01  0.0000000E+00  0.3333333E-02
   1      -20.843826    -20.843813
   2      -12.987562    -12.987622
   3      -12.300204    -12.300274
   4      -12.297189    -12.297259
   5       -6.028139     -6.028131
   6       -6.028139     -6.028131
   7       -6.016421     -6.016414
   8        1.466508      1.466484
   9        1.539486      1.539460
  10        1.539486      1.539460
  11        2.702813      2.702741
  12        2.702813      2.702741
  13        2.721873      2.721800
  14        3.597852      3.597787
  15        3.699758      3.699695
  16        3.699758      3.699695
  17        5.462742      5.462784
  18        5.567885      5.567923
  19        5.567886      5.567923
  20        7.416489      7.416511
  21        7.572337      7.572357
  22        9.086061      9.086085
  23        9.089574      9.089600
  24       11.259146     11.259105
 
  0.0000000E+00  0.8163265E-01  0.0000000E+00  0.3333333E-02
   1      -20.842294    -20.842282
   2      -12.988146    -12.988205
   3      -12.300428    -12.300498
   4      -12.296865    -12.296935
   5       -6.025825     -6.025818
   6       -6.025825     -6.025818
   7       -6.010609     -6.010602
   8        1.441085      1.441061
   9        1.535722      1.535696
  10        1.535722      1.535696
  11        2.685009      2.684938
  12        2.685009      2.684938
  13        2.709263      2.709190
  14        3.556921      3.556857
  15        3.687652      3.687590
  16        3.687652      3.687590
  17        5.464378      5.464420
  18        5.599646      5.599682
  19        5.599646      5.599682
  20        7.416546      7.416568
  21        7.616540      7.616560
  22        9.113516      9.113540
  23        9.118335      9.118361
  24       11.313235     11.329391
 
  0.0000000E+00  0.9183673E-01  0.0000000E+00  0.3333333E-02
   1      -20.840571    -20.840559
   2      -12.988891    -12.988950
   3      -12.300478    -12.300548
   4      -12.296358    -12.296428
   5       -6.023213     -6.023206
   6       -6.023213     -6.023206
   7       -6.004100     -6.004093
   8        1.412622      1.412599
   9        1.531421      1.531395
  10        1.531421      1.531395
  11        2.665442      2.665371
  12        2.665442      2.665371
  13        2.695226      2.695154
  14        3.512286      3.512222
  15        3.674495      3.674432
  16        3.674495      3.674433
  17        5.466214      5.466256
  18        5.634593      5.634628
  19        5.634593      5.634628
  20        7.416620      7.416642
  21        7.664860      7.664879
  22        9.144299      9.144322
  23        9.150703      9.150728
  24       11.340008     11.377335
 
  0.0000000E+00  0.1020408E+00  0.0000000E+00  0.3333333E-02
   1      -20.838668    -20.838656
   2      -12.989859    -12.989919
   3      -12.300358    -12.300428
   4      -12.295797    -12.295868
   5       -6.020326     -6.020318
   6       -6.020326     -6.020318
   7       -5.996923     -5.996916
   8        1.381247      1.381225
   9        1.526572      1.526546
  10        1.526572      1.526546
  11        2.644293      2.644224
  12        2.644293      2.644224
  13        2.679848      2.679776
  14        3.464444      3.464381
  15        3.660420      3.660358
  16        3.660420      3.660358
  17        5.468243      5.468285
  18        5.672424      5.672458
  19        5.672424      5.672458
  20        7.416701      7.416722
  21        7.716793      7.716811
  22        9.178276      9.178298
  23        9.186590      9.186616
  24       11.426132     11.386140
 
  0.0000000E+00  0.1122449E+00  0.0000000E+00  0.3333333E-02
   1      -20.836586    -20.836574
   2      -12.991069    -12.991128
   3      -12.299974    -12.300044
   4      -12.295064    -12.295134
   5       -6.017163     -6.017155
   6       -6.017163     -6.017155
   7       -5.989101     -5.989094
   8        1.347100      1.347078
   9        1.521162      1.521136
  10        1.521162      1.521136
  11        2.621774      2.621706
  12        2.621774      2.621706
  13        2.663231      2.663160
  14        3.413884      3.413821
  15        3.645565      3.645504
  16        3.645565      3.645504
  17        5.470457      5.470499
  18        5.712850      5.712882
  19        5.712850      5.712882
  20        7.416799      7.416821
  21        7.771842      7.771861
  22        9.215343      9.215365
  23        9.225916      9.225944
  24       11.438455     11.448556
 
  0.0000000E+00  0.1224490E+00  0.0000000E+00  0.3333333E-02
   1      -20.834344    -20.834332
   2      -12.992596    -12.992655
   3      -12.299365    -12.299435
   4      -12.294405    -12.294475
   5       -6.013757     -6.013749
   6       -6.013757     -6.013749
   7       -5.980687     -5.980680
   8        1.310332      1.310312
   9        1.515179      1.515152
  10        1.515179      1.515152
  11        2.598080      2.598013
  12        2.598080      2.598013
  13        2.645454      2.645383
  14        3.361070      3.361007
  15        3.630049      3.629988
  16        3.630049      3.629988
  17        5.472849      5.472891
  18        5.755552      5.755583
  19        5.755552      5.755583
  20        7.416894      7.416916
  21        7.829513      7.829530
  22        9.255298      9.255319
  23        9.268565      9.268590
  24       11.501803     11.506599
 
  0.0000000E+00  0.1326531E+00  0.0000000E+00  0.3333333E-02
   1      -20.831945    -20.831933
   2      -12.994457    -12.994517
   3      -12.298437    -12.298507
   4      -12.293699    -12.293770
   5       -6.010110     -6.010102
   6       -6.010110     -6.010102
   7       -5.971708     -5.971702
   8        1.271106      1.271086
   9        1.508610      1.508584
  10        1.508610      1.508584
  11        2.573430      2.573364
  12        2.573430      2.573364
  13        2.626629      2.626559
  14        3.306446      3.306384
  15        3.613986      3.613926
  16        3.613986      3.613926
  17        5.475408      5.475450
  18        5.800255      5.800284
  19        5.800255      5.800284
  20        7.416995      7.417017
  21        7.889347      7.889364
  22        9.298019      9.298038
  23        9.314442      9.314467
  24       11.580282     11.566902
 
  0.0000000E+00  0.1428571E+00  0.0000000E+00  0.3333333E-02
   1      -20.829398    -20.829386
   2      -12.996686    -12.996745
   3      -12.297146    -12.297216
   4      -12.292950    -12.293021
   5       -6.006235     -6.006227
   6       -6.006235     -6.006227
   7       -5.962204     -5.962197
   8        1.229597      1.229578
   9        1.501445      1.501419
  10        1.501446      1.501419
  11        2.548033      2.547968
  12        2.548033      2.547968
  13        2.606862      2.606792
  14        3.250430      3.250368
  15        3.597482      3.597423
  16        3.597482      3.597422
  17        5.478125      5.478167
  18        5.846681      5.846709
  19        5.846681      5.846710
  20        7.417101      7.417124
  21        7.950907      7.950924
  22        9.343343      9.343363
  23        9.363435      9.363462
  24       11.632584     11.632088
 
  0.0000000E+00  0.1530612E+00  0.0000000E+00  0.3333333E-02
   1      -20.826707    -20.826695
   2      -12.999245    -12.999305
   3      -12.295448    -12.295518
   4      -12.292161    -12.292231
   5       -6.002145     -6.002137
   6       -6.002145     -6.002137
   7       -5.952201     -5.952195
   8        1.185989      1.185970
   9        1.493675      1.493648
  10        1.493675      1.493648
  11        2.522095      2.522031
  12        2.522095      2.522031
  13        2.586260      2.586191
  14        3.193412      3.193350
  15        3.580635      3.580575
  16        3.580635      3.580575
  17        5.480988      5.481030
  18        5.894569      5.894596
  19        5.894569      5.894596
  20        7.417214      7.417236
  21        8.013798      8.013815
  22        9.391105      9.391132
  23        9.415435      9.415462
  24       11.687542     11.968743
 
  0.0000000E+00  0.1632653E+00  0.0000000E+00  0.3333333E-02
   1      -20.823896    -20.823883
   2      -13.002295    -13.002355
   3      -12.293308    -12.293378
   4      -12.291334    -12.291404
   5       -5.997859     -5.997851
   6       -5.997859     -5.997851
   7       -5.941770     -5.941764
   8        1.140475      1.140457
   9        1.485291      1.485265
  10        1.485292      1.485265
  11        2.495816      2.495753
  12        2.495816      2.495753
  13        2.564933      2.564864
  14        3.135736      3.135674
  15        3.563521      3.563462
  16        3.563521      3.563462
  17        5.483988      5.484030
  18        5.943664      5.943689
  19        5.943664      5.943689
  20        7.417329      7.417351
  21        8.077615      8.077631
  22        9.441130      9.441146
  23        9.470304      9.470329
  24       11.763704     11.764862
 
  0.0000000E+00  0.1734694E+00  0.0000000E+00  0.3333333E-02
   1      -20.820968    -20.820956
   2      -13.005787    -13.005846
   3      -12.290694    -12.290763
   4      -12.290473    -12.290544
   5       -5.993391     -5.993383
   6       -5.993391     -5.993383
   7       -5.930941     -5.930935
   8        1.093258      1.093241
   9        1.476291      1.476264
  10        1.476291      1.476264
  11        2.469386      2.469324
  12        2.469386      2.469324
  13        2.542989      2.542921
  14        3.077732      3.077670
  15        3.546223      3.546164
  16        3.546223      3.546164
  17        5.487112      5.487154
  18        5.993728      5.993752
  19        5.993728      5.993752
  20        7.417449      7.417471
  21        8.142018      8.142034
  22        9.493238      9.493254
  23        9.527919      9.527946
  24       11.866146     11.976426
 
  0.0000000E+00  0.1836735E+00  0.0000000E+00  0.3333333E-02
   1      -20.817957    -20.817945
   2      -13.009892    -13.009951
   3      -12.289582    -12.289653
   4      -12.287587    -12.287657
   5       -5.988761     -5.988753
   6       -5.988761     -5.988753
   7       -5.919763     -5.919757
   8        1.044544      1.044527
   9        1.466672      1.466645
  10        1.466672      1.466646
  11        2.442986      2.442925
  12        2.442986      2.442925
  13        2.520536      2.520469
  14        3.019640      3.019579
  15        3.528801      3.528742
  16        3.528801      3.528742
  17        5.490347      5.490389
  18        6.044534      6.044557
  19        6.044533      6.044557
  20        7.417571      7.417593
  21        8.206667      8.206681
  22        9.547257      9.547256
  23        9.588656      9.588170
  24       12.084764     11.936426
 
  0.0000000E+00  0.1938776E+00  0.0000000E+00  0.3333333E-02
   1      -20.814834    -20.814821
   2      -13.014299    -13.014358
   3      -12.288664    -12.288735
   4      -12.283964    -12.284034
   5       -5.983983     -5.983975
   6       -5.983983     -5.983975
   7       -5.908280     -5.908275
   8        0.994547      0.994532
   9        1.456439      1.456412
  10        1.456439      1.456412
  11        2.416784      2.416725
  12        2.416784      2.416725
  13        2.497683      2.497617
  14        2.961824      2.961762
  15        3.511343      3.511286
  16        3.511343      3.511285
  17        5.493683      5.493726
  18        6.095868      6.095890
  19        6.095868      6.095890
  20        7.417697      7.417719
  21        8.271293      8.271308
  22        9.602948      9.603010
  23        9.650826      9.651044
  24       12.002970     12.434906
 
  0.0000000E+00  0.2040816E+00  0.0000000E+00  0.3333333E-02
   1      -20.811621    -20.811609
   2      -13.019084    -13.019144
   3      -12.287655    -12.287726
   4      -12.279790    -12.279860
   5       -5.979066     -5.979058
   6       -5.979066     -5.979058
   7       -5.896522     -5.896516
   8        0.943490      0.943475
   9        1.445610      1.445583
  10        1.445610      1.445583
  11        2.390937      2.390879
  12        2.390937      2.390879
  13        2.474537      2.474471
  14        2.904477      2.904415
  15        3.493905      3.493848
  16        3.493905      3.493847
  17        5.497106      5.497148
  18        6.147523      6.147545
  19        6.147524      6.147545
  20        7.417828      7.417850
  21        8.335640      8.335655
  22        9.660175      9.660236
  23        9.715824      9.715867
  24       12.251836     12.134184
 
  0.0000000E+00  0.2142857E+00  0.0000000E+00  0.3333333E-02
   1      -20.808351    -20.808338
   2      -13.024393    -13.024452
   3      -12.286696    -12.286766
   4      -12.275132    -12.275202
   5       -5.974050     -5.974042
   6       -5.974050     -5.974042
   7       -5.884579     -5.884574
   8        0.891593      0.891580
   9        1.434189      1.434162
  10        1.434189      1.434162
  11        2.365583      2.365525
  12        2.365583      2.365525
  13        2.451199      2.451134
  14        2.847802      2.847740
  15        3.476538      3.476481
  16        3.476539      3.476481
  17        5.500601      5.500644
  18        6.199300      6.199320
  19        6.199300      6.199320
  20        7.417959      7.417981
  21        8.399410      8.399561
  22        9.719206      9.721193
  23        9.783520      9.787433
  24       12.253843     12.444342
 
  0.0000000E+00  0.2244898E+00  0.0000000E+00  0.3333333E-02
   1      -20.805018    -20.805006
   2      -13.030065    -13.030124
   3      -12.285721    -12.285792
   4      -12.269964    -12.270034
   5       -5.968940     -5.968933
   6       -5.968940     -5.968933
   7       -5.872467     -5.872462
   8        0.839083      0.839070
   9        1.422208      1.422180
  10        1.422208      1.422180
  11        2.340848      2.340792
  12        2.340848      2.340792
  13        2.427772      2.427708
  14        2.791994      2.791933
  15        3.459309      3.459252
  16        3.459309      3.459252
  17        5.504155      5.504197
  18        6.251013      6.251033
  19        6.251013      6.251032
  20        7.418095      7.418117
  21        8.462397      8.462411
  22        9.778329      9.778347
  23        9.852148      9.852230
  24       12.288326     12.285151
 
  0.0000000E+00  0.2346939E+00  0.0000000E+00  0.3333333E-02
   1      -20.801654    -20.801642
   2      -13.036229    -13.036288
   3      -12.284736    -12.284807
   4      -12.264377    -12.264446
   5       -5.963766     -5.963758
   6       -5.963766     -5.963758
   7       -5.860300     -5.860295
   8        0.786180      0.786168
   9        1.409699      1.409671
  10        1.409699      1.409671
  11        2.316842      2.316787
  12        2.316842      2.316787
  13        2.404356      2.404293
  14        2.737215      2.737154
  15        3.442252      3.442196
  16        3.442252      3.442196
  17        5.507753      5.507796
  18        6.302477      6.302495
  19        6.302477      6.302495
  20        7.418229      7.418250
  21        8.524400      8.524414
  22        9.838887      9.838863
  23        9.923068      9.923048
  24       12.325863     12.312743
 
  0.0000000E+00  0.2448980E+00  0.0000000E+00  0.3333333E-02
   1      -20.798261    -20.798249
   2      -13.042731    -13.042790
   3      -12.283745    -12.283815
   4      -12.258274    -12.258344
   5       -5.958542     -5.958534
   6       -5.958542     -5.958534
   7       -5.848039     -5.848034
   8        0.733117      0.733106
   9        1.396703      1.396675
  10        1.396703      1.396675
  11        2.293658      2.293603
  12        2.293658      2.293603
  13        2.381046      2.380982
  14        2.683626      2.683565
  15        3.425429      3.425373
  16        3.425429      3.425373
  17        5.511381      5.511423
  18        6.353524      6.353542
  19        6.353524      6.353542
  20        7.418363      7.418384
  21        8.585236      8.585249
  22        9.900066      9.900077
  23        9.995570      9.995593
  24       12.461503     12.444469
 
  0.0000000E+00  0.2551020E+00  0.0000000E+00  0.3333333E-02
   1      -20.794855    -20.794842
   2      -13.049560    -13.049619
   3      -12.282750    -12.282821
   4      -12.251751    -12.251821
   5       -5.953291     -5.953283
   6       -5.953291     -5.953283
   7       -5.835771     -5.835766
   8        0.680115      0.680104
   9        1.383270      1.383241
  10        1.383270      1.383241
  11        2.271372      2.271319
  12        2.271372      2.271319
  13        2.357931      2.357869
  14        2.631356      2.631295
  15        3.408886      3.408830
  16        3.408886      3.408830
  17        5.515024      5.515066
  18        6.403989      6.404005
  19        6.403989      6.404005
  20        7.418496      7.418518
  21        8.644733      8.644746
  22        9.961871      9.961815
  23       10.069829     10.069552
  24       12.301412     12.282102
 
  0.0000000E+00  0.2653061E+00  0.0000000E+00  0.3333333E-02
   1      -20.791449    -20.791437
   2      -13.056674    -13.056733
   3      -12.281757    -12.281827
   4      -12.244851    -12.244921
   5       -5.948034     -5.948026
   6       -5.948034     -5.948026
   7       -5.823547     -5.823543
   8        0.627394      0.627384
   9        1.369456      1.369427
  10        1.369456      1.369427
  11        2.250048      2.249995
  12        2.250048      2.249995
  13        2.335101      2.335039
  14        2.580526      2.580465
  15        3.392670      3.392614
  16        3.392669      3.392614
  17        5.518668      5.518710
  18        6.453713      6.453729
  19        6.453713      6.453729
  20        7.418629      7.418652
  21        8.702740      8.702752
  22       10.023926     10.023698
  23       10.144726     10.144757
  24       12.274321     12.363855
 
  0.0000000E+00  0.2755102E+00  0.0000000E+00  0.3333333E-02
   1      -20.788056    -20.788044
   2      -13.064019    -13.064078
   3      -12.280700    -12.280771
   4      -12.237597    -12.237667
   5       -5.942793     -5.942785
   6       -5.942793     -5.942785
   7       -5.811405     -5.811401
   8        0.575176      0.575167
   9        1.355329      1.355301
  10        1.355330      1.355301
  11        2.229731      2.229679
  12        2.229731      2.229679
  13        2.312646      2.312585
  14        2.531243      2.531182
  15        3.376825      3.376770
  16        3.376825      3.376770
  17        5.522297      5.522339
  18        6.502544      6.502559
  19        6.502544      6.502559
  20        7.418762      7.418784
  21        8.759133      8.759143
  22       10.085816     10.085725
  23       10.220861     10.220883
  24       12.432790     12.323202
 
  0.0000000E+00  0.2857143E+00  0.0000000E+00  0.3333333E-02
   1      -20.784701    -20.784689
   2      -13.071585    -13.071643
   3      -12.279723    -12.279794
   4      -12.230097    -12.230167
   5       -5.937590     -5.937582
   6       -5.937590     -5.937582
   7       -5.799381     -5.799377
   8        0.523669      0.523660
   9        1.340964      1.340935
  10        1.340965      1.340935
  11        2.210455      2.210404
  12        2.210455      2.210404
  13        2.290633      2.290573
  14        2.483575      2.483514
  15        3.361383      3.361328
  16        3.361383      3.361328
  17        5.525895      5.525938
  18        6.550338      6.550353
  19        6.550338      6.550353
  20        7.418889      7.418911
  21        8.813873      8.813741
  22       10.148653     10.148123
  23       10.299479     10.299311
  24       12.553555     12.515180
 
  0.0000000E+00  0.2959184E+00  0.0000000E+00  0.3333333E-02
   1      -20.781383    -20.781370
   2      -13.079250    -13.079308
   3      -12.278759    -12.278829
   4      -12.222376    -12.222446
   5       -5.932446     -5.932438
   6       -5.932446     -5.932438
   7       -5.787587     -5.787584
   8        0.473082      0.473074
   9        1.326441      1.326412
  10        1.326442      1.326412
  11        2.192241      2.192190
  12        2.192241      2.192190
  13        2.269147      2.269087
  14        2.437661      2.437600
  15        3.346405      3.346350
  16        3.346405      3.346350
  17        5.529450      5.529492
  18        6.596941      6.596955
  19        6.596941      6.596955
  20        7.419017      7.419039
  21        8.866461      8.866470
  22       10.209669     10.208914
  23       10.375435     10.375469
  24       12.303891     12.669822
 
  0.0000000E+00  0.3061224E+00  0.0000000E+00  0.3333333E-02
   1      -20.778123    -20.778110
   2      -13.086987    -13.087046
   3      -12.277879    -12.277950
   4      -12.214536    -12.214605
   5       -5.927384     -5.927376
   6       -5.927384     -5.927376
   7       -5.776045     -5.776042
   8        0.423616      0.423608
   9        1.311847      1.311817
  10        1.311847      1.311817
  11        2.175095      2.175046
  12        2.175095      2.175046
  13        2.248252      2.248192
  14        2.393553      2.393492
  15        3.331920      3.331865
  16        3.331920      3.331865
  17        5.532944      5.532987
  18        6.642224      6.642237
  19        6.642224      6.642237
  20        7.419141      7.419163
  21        8.917197      8.917209
  22       10.269299     10.269395
  23       10.452941     10.452811
  24       12.413914     12.269325
 
  0.0000000E+00  0.3163265E+00  0.0000000E+00  0.3333333E-02
   1      -20.774931    -20.774919
   2      -13.094737    -13.094796
   3      -12.276954    -12.277025
   4      -12.206565    -12.206634
   5       -5.922425     -5.922417
   6       -5.922425     -5.922417
   7       -5.764778     -5.764775
   8        0.375466      0.375459
   9        1.297273      1.297243
  10        1.297273      1.297243
  11        2.159021      2.158973
  12        2.159021      2.158973
  13        2.228033      2.227974
  14        2.351322      2.351262
  15        3.317964      3.317910
  16        3.317965      3.317910
  17        5.536364      5.536407
  18        6.686050      6.686063
  19        6.686050      6.686063
  20        7.419262      7.419284
  21        8.965866      8.965879
  22       10.329085     10.329112
  23       10.530760     10.530775
  24       12.267142     12.366824
 
  0.0000000E+00  0.3265306E+00  0.0000000E+00  0.3333333E-02
   1      -20.771826    -20.771814
   2      -13.102481    -13.102539
   3      -12.276055    -12.276126
   4      -12.198609    -12.198680
   5       -5.917593     -5.917585
   6       -5.917593     -5.917585
   7       -5.753869     -5.753866
   8        0.328818      0.328811
   9        1.282813      1.282783
  10        1.282813      1.282783
  11        2.144009      2.143960
  12        2.144009      2.143960
  13        2.208549      2.208490
  14        2.311034      2.310973
  15        3.304568      3.304513
  16        3.304568      3.304513
  17        5.539695      5.539737
  18        6.728292      6.728304
  19        6.728291      6.728303
  20        7.419380      7.419402
  21        9.012366      9.012377
  22       10.387415     10.387329
  23       10.607638     10.607592
  24       12.198166     12.205058
 