Perovskite (band)                       
   1.00000000000000     
     4.024716    0.000000    0.000000
     0.000000    4.024716    0.000000
     0.000000    0.000000    4.024716
   Ba   Ti   O 
     1     1     3
Direct
  0.500000  0.500000  0.500000
  0.000000  0.000000  0.000000
  0.500000  0.000000  0.000000
  0.000000  0.500000  0.000000
  0.000000  0.000000  0.500000
 
   30   30   30
 0.16242E-01 0.13731E-02 0.54975E-03 0.16853E-02 0.89151E-02 0.38906E-01 0.11551     0.23761     0.39502     0.55802    
 0.64583     0.63951     0.53943     0.35916     0.19807     0.14341     0.19807     0.35916     0.53943     0.63951    
 0.64583     0.55802     0.39502     0.23761     0.11551     0.38906E-01 0.89151E-02 0.16853E-02 0.54975E-03 0.13731E-02
 0.13731E-02 0.58776E-03 0.44228E-03 0.14729E-02 0.78260E-02 0.34780E-01 0.10673     0.22666     0.38408     0.54968    
 0.64333     0.64636     0.56423     0.40889     0.25889     0.20287     0.25889     0.40889     0.56423     0.64636    
 0.64333     0.54968     0.38408     0.22666     0.10673     0.34780E-01 0.78260E-02 0.14729E-02 0.44228E-03 0.58776E-03
 0.54975E-03 0.44228E-03 0.48710E-03 0.13683E-02 0.61152E-02 0.26007E-01 0.84058E-01 0.19450     0.35027     0.52195    
 0.63153     0.65792     0.61710     0.52328     0.42074     0.37658     0.42074     0.52328     0.61710     0.65792    
 0.63153     0.52195     0.35027     0.19450     0.84058E-01 0.26007E-01 0.61152E-02 0.13683E-02 0.48710E-03 0.44228E-03
 0.16853E-02 0.14729E-02 0.13683E-02 0.21837E-02 0.58280E-02 0.18877E-01 0.57913E-01 0.14631     0.29209     0.46756    
 0.59908     0.65500     0.65689     0.62398     0.58111     0.56126     0.58111     0.62398     0.65689     0.65500    
 0.59908     0.46756     0.29209     0.14631     0.57913E-01 0.18877E-01 0.58280E-02 0.21837E-02 0.13683E-02 0.14729E-02
 0.89151E-02 0.78260E-02 0.61152E-02 0.58280E-02 0.82013E-02 0.16159E-01 0.38477E-01 0.95852E-01 0.21352     0.37956    
 0.53031     0.61901     0.65652     0.66459     0.65962     0.65585     0.65962     0.66459     0.65652     0.61901    
 0.53031     0.37956     0.21352     0.95852E-01 0.38477E-01 0.16159E-01 0.82013E-02 0.58280E-02 0.61152E-02 0.78260E-02
 0.38906E-01 0.34780E-01 0.26007E-01 0.18877E-01 0.16159E-01 0.18393E-01 0.28584E-01 0.58161E-01 0.13203     0.26350    
 0.41409     0.53241     0.60341     0.63988     0.65607     0.66049     0.65607     0.63988     0.60341     0.53241    
 0.41409     0.26350     0.13203     0.58161E-01 0.28584E-01 0.18393E-01 0.16159E-01 0.18877E-01 0.26007E-01 0.34780E-01
 0.11551     0.10673     0.84058E-01 0.57913E-01 0.38477E-01 0.28584E-01 0.27518E-01 0.37967E-01 0.71810E-01 0.14840    
 0.26628     0.39001     0.48707     0.54878     0.58118     0.59116     0.58118     0.54878     0.48707     0.39001    
 0.26628     0.14840     0.71810E-01 0.37967E-01 0.27518E-01 0.28584E-01 0.38477E-01 0.57913E-01 0.84058E-01 0.10673    
 0.23761     0.22666     0.19450     0.14631     0.95852E-01 0.58161E-01 0.37967E-01 0.32493E-01 0.41136E-01 0.71188E-01
 0.13434     0.22746     0.32336     0.39624     0.43852     0.45209     0.43852     0.39624     0.32336     0.22746    
 0.13434     0.71188E-01 0.41136E-01 0.32493E-01 0.37967E-01 0.58161E-01 0.95852E-01 0.14631     0.19450     0.22666    
 0.39502     0.38408     0.35027     0.29209     0.21352     0.13203     0.71810E-01 0.41136E-01 0.31719E-01 0.36861E-01
 0.58366E-01 0.10239     0.16592     0.22786     0.26800     0.28119     0.26800     0.22786     0.16592     0.10239    
 0.58366E-01 0.36861E-01 0.31719E-01 0.41136E-01 0.71810E-01 0.13203     0.21352     0.29209     0.35027     0.38408    
 0.55802     0.54968     0.52195     0.46756     0.37956     0.26350     0.14840     0.71188E-01 0.36861E-01 0.26783E-01
 0.29113E-01 0.41852E-01 0.66282E-01 0.97852E-01 0.12319     0.13235     0.12319     0.97852E-01 0.66282E-01 0.41852E-01
 0.29113E-01 0.26783E-01 0.36861E-01 0.71188E-01 0.14840     0.26350     0.37956     0.46756     0.52195     0.54968    
 0.64583     0.64333     0.63153     0.59908     0.53031     0.41409     0.26628     0.13434     0.58366E-01 0.29113E-01
 0.20769E-01 0.21043E-01 0.26619E-01 0.35919E-01 0.44815E-01 0.48381E-01 0.44815E-01 0.35919E-01 0.26619E-01 0.21043E-01
 0.20769E-01 0.29113E-01 0.58366E-01 0.13434     0.26628     0.41409     0.53031     0.59908     0.63153     0.64333    
 0.63951     0.64636     0.65792     0.65500     0.61901     0.53241     0.39001     0.22746     0.10239     0.41852E-01
 0.21043E-01 0.14813E-01 0.13782E-01 0.15125E-01 0.17129E-01 0.18046E-01 0.17129E-01 0.15125E-01 0.13782E-01 0.14813E-01
 0.21043E-01 0.41852E-01 0.10239     0.22746     0.39001     0.53241     0.61901     0.65500     0.65792     0.64636    
 0.53943     0.56423     0.61710     0.65689     0.65652     0.60341     0.48707     0.32336     0.16592     0.66282E-01
 0.26619E-01 0.13782E-01 0.95378E-02 0.82962E-02 0.82313E-02 0.83392E-02 0.82313E-02 0.82962E-02 0.95378E-02 0.13782E-01
 0.26619E-01 0.66282E-01 0.16592     0.32336     0.48707     0.60341     0.65652     0.65689     0.61710     0.56423    
 0.35916     0.40889     0.52328     0.62398     0.66459     0.63988     0.54878     0.39624     0.22786     0.97852E-01
 0.35919E-01 0.15125E-01 0.82962E-02 0.58967E-02 0.51472E-02 0.50051E-02 0.51472E-02 0.58967E-02 0.82962E-02 0.15125E-01
 0.35919E-01 0.97852E-01 0.22786     0.39624     0.54878     0.63988     0.66459     0.62398     0.52328     0.40889    
 0.19807     0.25889     0.42074     0.58111     0.65962     0.65607     0.58118     0.43852     0.26800     0.12319    
 0.44815E-01 0.17129E-01 0.82313E-02 0.51472E-02 0.41092E-02 0.38759E-02 0.41092E-02 0.51472E-02 0.82313E-02 0.17129E-01
 0.44815E-01 0.12319     0.26800     0.43852     0.58118     0.65607     0.65962     0.58111     0.42074     0.25889    
 0.14341     0.20287     0.37658     0.56126     0.65585     0.66049     0.59116     0.45209     0.28119     0.13235    
 0.48381E-01 0.18046E-01 0.83392E-02 0.50051E-02 0.38759E-02 0.36163E-02 0.38759E-02 0.50051E-02 0.83392E-02 0.18046E-01
 0.48381E-01 0.13235     0.28119     0.45209     0.59116     0.66049     0.65585     0.56126     0.37658     0.20287    
 0.19807     0.25889     0.42074     0.58111     0.65962     0.65607     0.58118     0.43852     0.26800     0.12319    
 0.44815E-01 0.17129E-01 0.82313E-02 0.51472E-02 0.41092E-02 0.38759E-02 0.41092E-02 0.51472E-02 0.82313E-02 0.17129E-01
 0.44815E-01 0.12319     0.26800     0.43852     0.58118     0.65607     0.65962     0.58111     0.42074     0.25889    
 0.35916     0.40889     0.52328     0.62398     0.66459     0.63988     0.54878     0.39624     0.22786     0.97852E-01
 0.35919E-01 0.15125E-01 0.82962E-02 0.58967E-02 0.51472E-02 0.50051E-02 0.51472E-02 0.58967E-02 0.82962E-02 0.15125E-01
 0.35919E-01 0.97852E-01 0.22786     0.39624     0.54878     0.63988     0.66459     0.62398     0.52328     0.40889    
 0.53943     0.56423     0.61710     0.65689     0.65652     0.60341     0.48707     0.32336     0.16592     0.66282E-01
 0.26619E-01 0.13782E-01 0.95378E-02 0.82962E-02 0.82313E-02 0.83392E-02 0.82313E-02 0.82962E-02 0.95378E-02 0.13782E-01
 0.26619E-01 0.66282E-01 0.16592     0.32336     0.48707     0.60341     0.65652     0.65689     0.61710     0.56423    
 0.63951     0.64636     0.65792     0.65500     0.61901     0.53241     0.39001     0.22746     0.10239     0.41852E-01
 0.21043E-01 0.14813E-01 0.13782E-01 0.15125E-01 0.17129E-01 0.18046E-01 0.17129E-01 0.15125E-01 0.13782E-01 0.14813E-01
 0.21043E-01 0.41852E-01 0.10239     0.22746     0.39001     0.53241     0.61901     0.65500     0.65792     0.64636    
 0.64583     0.64333     0.63153     0.59908     0.53031     0.41409     0.26628     0.13434     0.58366E-01 0.29113E-01
 0.20769E-01 0.21043E-01 0.26619E-01 0.35919E-01 0.44815E-01 0.48381E-01 0.44815E-01 0.35919E-01 0.26619E-01 0.21043E-01
 0.20769E-01 0.29113E-01 0.58366E-01 0.13434     0.26628     0.41409     0.53031     0.59908     0.63153     0.64333    
 0.55802     0.54968     0.52195     0.46756     0.37956     0.26350     0.14840     0.71188E-01 0.36861E-01 0.26783E-01
 0.29113E-01 0.41852E-01 0.66282E-01 0.97852E-01 0.12319     0.13235     0.12319     0.97852E-01 0.66282E-01 0.41852E-01
 0.29113E-01 0.26783E-01 0.36861E-01 0.71188E-01 0.14840     0.26350     0.37956     0.46756     0.52195     0.54968    
 0.39502     0.38408     0.35027     0.29209     0.21352     0.13203     0.71810E-01 0.41136E-01 0.31719E-01 0.36861E-01
 0.58366E-01 0.10239     0.16592     0.22786     0.26800     0.28119     0.26800     0.22786     0.16592     0.10239    
 0.58366E-01 0.36861E-01 0.31719E-01 0.41136E-01 0.71810E-01 0.13203     0.21352     0.29209     0.35027     0.38408    
 0.23761     0.22666     0.19450     0.14631     0.95852E-01 0.58161E-01 0.37967E-01 0.32493E-01 0.41136E-01 0.71188E-01
 0.13434     0.22746     0.32336     0.39624     0.43852     0.45209     0.43852     0.39624     0.32336     0.22746    
 0.13434     0.71188E-01 0.41136E-01 0.32493E-01 0.37967E-01 0.58161E-01 0.95852E-01 0.14631     0.19450     0.22666    
 0.11551     0.10673     0.84058E-01 0.57913E-01 0.38477E-01 0.28584E-01 0.27518E-01 0.37967E-01 0.71810E-01 0.14840    
 0.26628     0.39001     0.48707     0.54878     0.58118     0.59116     0.58118     0.54878     0.48707     0.39001    
 0.26628     0.14840     0.71810E-01 0.37967E-01 0.27518E-01 0.28584E-01 0.38477E-01 0.57913E-01 0.84058E-01 0.10673    
 0.38906E-01 0.34780E-01 0.26007E-01 0.18877E-01 0.16159E-01 0.18393E-01 0.28584E-01 0.58161E-01 0.13203     0.26350    
 0.41409     0.53241     0.60341     0.63988     0.65607     0.66049     0.65607     0.63988     0.60341     0.53241    
 0.41409     0.26350     0.13203     0.58161E-01 0.28584E-01 0.18393E-01 0.16159E-01 0.18877E-01 0.26007E-01 0.34780E-01
 0.89151E-02 0.78260E-02 0.61152E-02 0.58280E-02 0.82013E-02 0.16159E-01 0.38477E-01 0.95852E-01 0.21352     0.37956    
 0.53031     0.61901     0.65652     0.66459     0.65962     0.65585     0.65962     0.66459     0.65652     0.61901    
 0.53031     0.37956     0.21352     0.95852E-01 0.38477E-01 0.16159E-01 0.82013E-02 0.58280E-02 0.61152E-02 0.78260E-02
 0.16853E-02 0.14729E-02 0.13683E-02 0.21837E-02 0.58280E-02 0.18877E-01 0.57913E-01 0.14631     0.29209     0.46756    
 0.59908     0.65500     0.65689     0.62398     0.58111     0.56126     0.58111     0.62398     0.65689     0.65500    
 0.59908     0.46756     0.29209     0.14631     0.57913E-01 0.18877E-01 0.58280E-02 0.21837E-02 0.13683E-02 0.14729E-02
 0.54975E-03 0.44228E-03 0.48710E-03 0.13683E-02 0.61152E-02 0.26007E-01 0.84058E-01 0.19450     0.35027     0.52195    
 0.63153     0.65792     0.61710     0.52328     0.42074     0.37658     0.42074     0.52328     0.61710     0.65792    
 0.63153     0.52195     0.35027     0.19450     0.84058E-01 0.26007E-01 0.61152E-02 0.13683E-02 0.48710E-03 0.44228E-03
 0.13731E-02 0.58776E-03 0.44228E-03 0.14729E-02 0.78260E-02 0.34780E-01 0.10673     0.22666     0.38408     0.54968    
 0.64333     0.64636     0.56423     0.40889     0.25889     0.20287     0.25889     0.40889     0.56423     0.64636    
 0.64333     0.54968     0.38408     0.22666     0.10673     0.34780E-01 0.78260E-02 0.14729E-02 0.44228E-03 0.58776E-03
 0.13731E-02 0.58776E-03 0.44228E-03 0.14729E-02 0.78260E-02 0.34780E-01 0.10673     0.22666     0.38408     0.54968    
 0.64333     0.64636     0.56423     0.40889     0.25889     0.20287     0.25889     0.40889     0.56423     0.64636    
 0.64333     0.54968     0.38408     0.22666     0.10673     0.34780E-01 0.78260E-02 0.14729E-02 0.44228E-03 0.58776E-03
 0.58776E-03 0.38009E-03 0.38823E-03 0.13348E-02 0.70048E-02 0.31366E-01 0.98839E-01 0.21621     0.37327     0.54103    
 0.64016     0.65164     0.58514     0.45275     0.31773     0.26386     0.31773     0.45275     0.58514     0.65164    
 0.64016     0.54103     0.37327     0.21621     0.98839E-01 0.31366E-01 0.70048E-02 0.13348E-02 0.38823E-03 0.38009E-03
 0.44228E-03 0.38823E-03 0.46924E-03 0.13124E-02 0.57021E-02 0.23996E-01 0.78420E-01 0.18558     0.34002     0.51256    
 0.62659     0.65944     0.62917     0.55111     0.46357     0.42506     0.46357     0.55111     0.62917     0.65944    
 0.62659     0.51256     0.34002     0.18558     0.78420E-01 0.23996E-01 0.57021E-02 0.13124E-02 0.46924E-03 0.38823E-03
 0.14729E-02 0.13348E-02 0.13124E-02 0.21292E-02 0.56053E-02 0.17882E-01 0.54710E-01 0.13983     0.28316     0.45761    
 0.59178     0.65231     0.66027     0.63534     0.60030     0.58383     0.60030     0.63534     0.66027     0.65231    
 0.59178     0.45761     0.28316     0.13983     0.54710E-01 0.17882E-01 0.56053E-02 0.21292E-02 0.13124E-02 0.13348E-02
 0.78260E-02 0.70048E-02 0.57021E-02 0.56053E-02 0.79599E-02 0.15605E-01 0.36909E-01 0.92042E-01 0.20674     0.37012    
 0.52076     0.61240     0.65355     0.66542     0.66371     0.66126     0.66371     0.66542     0.65355     0.61240    
 0.52076     0.37012     0.20674     0.92042E-01 0.36909E-01 0.15605E-01 0.79599E-02 0.56053E-02 0.57021E-02 0.70048E-02
 0.34780E-01 0.31366E-01 0.23996E-01 0.17882E-01 0.15605E-01 0.17912E-01 0.27808E-01 0.56340E-01 0.12783     0.25596    
 0.40391     0.52234     0.59548     0.63426     0.65212     0.65716     0.65212     0.63426     0.59548     0.52234    
 0.40391     0.25596     0.12783     0.56340E-01 0.27808E-01 0.17912E-01 0.15605E-01 0.17882E-01 0.23996E-01 0.31366E-01
 0.10673     0.98839E-01 0.78420E-01 0.54710E-01 0.36909E-01 0.27808E-01 0.26988E-01 0.37188E-01 0.69843E-01 0.14369    
 0.25791     0.37875     0.47496     0.53744     0.57089     0.58129     0.57089     0.53744     0.47496     0.37875    
 0.25791     0.14369     0.69843E-01 0.37188E-01 0.26988E-01 0.27808E-01 0.36909E-01 0.54710E-01 0.78420E-01 0.98839E-01
 0.22666     0.21621     0.18558     0.13983     0.92042E-01 0.56340E-01 0.37188E-01 0.32028E-01 0.40369E-01 0.69087E-01
 0.12923     0.21806     0.31003     0.38068     0.42222     0.43567     0.42222     0.38068     0.31003     0.21806    
 0.12923     0.69087E-01 0.40369E-01 0.32028E-01 0.37188E-01 0.56340E-01 0.92042E-01 0.13983     0.18558     0.21621    
 0.38408     0.37327     0.34002     0.28316     0.20674     0.12783     0.69843E-01 0.40369E-01 0.31267E-01 0.36061E-01
 0.56171E-01 0.96902E-01 0.15521     0.21207     0.24917     0.26144     0.24917     0.21207     0.15521     0.96902E-01
 0.56171E-01 0.36061E-01 0.31267E-01 0.40369E-01 0.69843E-01 0.12783     0.20674     0.28316     0.34002     0.37327    
 0.54968     0.54103     0.51256     0.45761     0.37012     0.25596     0.14369     0.69087E-01 0.36061E-01 0.26266E-01
 0.28220E-01 0.39627E-01 0.61056E-01 0.88069E-01 0.10941     0.11709     0.10941     0.88069E-01 0.61056E-01 0.39627E-01
 0.28220E-01 0.26266E-01 0.36061E-01 0.69087E-01 0.14369     0.25596     0.37012     0.45761     0.51256     0.54103    
 0.64333     0.64016     0.62659     0.59178     0.52076     0.40391     0.25791     0.12923     0.56171E-01 0.28220E-01
 0.20143E-01 0.20123E-01 0.24787E-01 0.32408E-01 0.39446E-01 0.42206E-01 0.39446E-01 0.32408E-01 0.24787E-01 0.20123E-01
 0.20143E-01 0.28220E-01 0.56171E-01 0.12923     0.25791     0.40391     0.52076     0.59178     0.62659     0.64016    
 0.64636     0.65164     0.65944     0.65231     0.61240     0.52234     0.37875     0.21806     0.96902E-01 0.39627E-01
 0.20123E-01 0.14232E-01 0.13153E-01 0.14197E-01 0.15787E-01 0.16501E-01 0.15787E-01 0.14197E-01 0.13153E-01 0.14232E-01
 0.20123E-01 0.39627E-01 0.96902E-01 0.21806     0.37875     0.52234     0.61240     0.65231     0.65944     0.65164    
 0.56423     0.58514     0.62917     0.66027     0.65355     0.59548     0.47496     0.31003     0.15521     0.61056E-01
 0.24787E-01 0.13153E-01 0.93192E-02 0.82294E-02 0.82007E-02 0.83069E-02 0.82007E-02 0.82294E-02 0.93192E-02 0.13153E-01
 0.24787E-01 0.61056E-01 0.15521     0.31003     0.47496     0.59548     0.65355     0.66027     0.62917     0.58514    
 0.40889     0.45275     0.55111     0.63534     0.66542     0.63426     0.53744     0.38068     0.21207     0.88069E-01
 0.32408E-01 0.14197E-01 0.82294E-02 0.61661E-02 0.55730E-02 0.54807E-02 0.55730E-02 0.61661E-02 0.82294E-02 0.14197E-01
 0.32408E-01 0.88069E-01 0.21207     0.38068     0.53744     0.63426     0.66542     0.63534     0.55111     0.45275    
 0.25889     0.31773     0.46357     0.60030     0.66371     0.65212     0.57089     0.42222     0.24917     0.10941    
 0.39446E-01 0.15787E-01 0.82007E-02 0.55730E-02 0.47311E-02 0.45609E-02 0.47311E-02 0.55730E-02 0.82007E-02 0.15787E-01
 0.39446E-01 0.10941     0.24917     0.42222     0.57089     0.65212     0.66371     0.60030     0.46357     0.31773    
 0.20287     0.26386     0.42506     0.58383     0.66126     0.65716     0.58129     0.43567     0.26144     0.11709    
 0.42206E-01 0.16501E-01 0.83069E-02 0.54807E-02 0.45609E-02 0.43681E-02 0.45609E-02 0.54807E-02 0.83069E-02 0.16501E-01
 0.42206E-01 0.11709     0.26144     0.43567     0.58129     0.65716     0.66126     0.58383     0.42506     0.26386    
 0.25889     0.31773     0.46357     0.60030     0.66371     0.65212     0.57089     0.42222     0.24917     0.10941    
 0.39446E-01 0.15787E-01 0.82007E-02 0.55730E-02 0.47311E-02 0.45609E-02 0.47311E-02 0.55730E-02 0.82007E-02 0.15787E-01
 0.39446E-01 0.10941     0.24917     0.42222     0.57089     0.65212     0.66371     0.60030     0.46357     0.31773    
 0.40889     0.45275     0.55111     0.63534     0.66542     0.63426     0.53744     0.38068     0.21207     0.88069E-01
 0.32408E-01 0.14197E-01 0.82294E-02 0.61661E-02 0.55730E-02 0.54807E-02 0.55730E-02 0.61661E-02 0.82294E-02 0.14197E-01
 0.32408E-01 0.88069E-01 0.21207     0.38068     0.53744     0.63426     0.66542     0.63534     0.55111     0.45275    
 0.56423     0.58514     0.62917     0.66027     0.65355     0.59548     0.47496     0.31003     0.15521     0.61056E-01
 0.24787E-01 0.13153E-01 0.93192E-02 0.82294E-02 0.82007E-02 0.83069E-02 0.82007E-02 0.82294E-02 0.93192E-02 0.13153E-01
 0.24787E-01 0.61056E-01 0.15521     0.31003     0.47496     0.59548     0.65355     0.66027     0.62917     0.58514    
 0.64636     0.65164     0.65944     0.65231     0.61240     0.52234     0.37875     0.21806     0.96902E-01 0.39627E-01
 0.20123E-01 0.14232E-01 0.13153E-01 0.14197E-01 0.15787E-01 0.16501E-01 0.15787E-01 0.14197E-01 0.13153E-01 0.14232E-01
 0.20123E-01 0.39627E-01 0.96902E-01 0.21806     0.37875     0.52234     0.61240     0.65231     0.65944     0.65164    
 0.64333     0.64016     0.62659     0.59178     0.52076     0.40391     0.25791     0.12923     0.56171E-01 0.28220E-01
 0.20143E-01 0.20123E-01 0.24787E-01 0.32408E-01 0.39446E-01 0.42206E-01 0.39446E-01 0.32408E-01 0.24787E-01 0.20123E-01
 0.20143E-01 0.28220E-01 0.56171E-01 0.12923     0.25791     0.40391     0.52076     0.59178     0.62659     0.64016    
 0.54968     0.54103     0.51256     0.45761     0.37012     0.25596     0.14369     0.69087E-01 0.36061E-01 0.26266E-01
 0.28220E-01 0.39627E-01 0.61056E-01 0.88069E-01 0.10941     0.11709     0.10941     0.88069E-01 0.61056E-01 0.39627E-01
 0.28220E-01 0.26266E-01 0.36061E-01 0.69087E-01 0.14369     0.25596     0.37012     0.45761     0.51256     0.54103    
 0.38408     0.37327     0.34002     0.28316     0.20674     0.12783     0.69843E-01 0.40369E-01 0.31267E-01 0.36061E-01
 0.56171E-01 0.96902E-01 0.15521     0.21207     0.24917     0.26144     0.24917     0.21207     0.15521     0.96902E-01
 0.56171E-01 0.36061E-01 0.31267E-01 0.40369E-01 0.69843E-01 0.12783     0.20674     0.28316     0.34002     0.37327    
 0.22666     0.21621     0.18558     0.13983     0.92042E-01 0.56340E-01 0.37188E-01 0.32028E-01 0.40369E-01 0.69087E-01
 0.12923     0.21806     0.31003     0.38068     0.42222     0.43567     0.42222     0.38068     0.31003     0.21806    
 0.12923     0.69087E-01 0.40369E-01 0.32028E-01 0.37188E-01 0.56340E-01 0.92042E-01 0.13983     0.18558     0.21621    
 0.10673     0.98839E-01 0.78420E-01 0.54710E-01 0.36909E-01 0.27808E-01 0.26988E-01 0.37188E-01 0.69843E-01 0.14369    
 0.25791     0.37875     0.47496     0.53744     0.57089     0.58129     0.57089     0.53744     0.47496     0.37875    
 0.25791     0.14369     0.69843E-01 0.37188E-01 0.26988E-01 0.27808E-01 0.36909E-01 0.54710E-01 0.78420E-01 0.98839E-01
 0.34780E-01 0.31366E-01 0.23996E-01 0.17882E-01 0.15605E-01 0.17912E-01 0.27808E-01 0.56340E-01 0.12783     0.25596    
 0.40391     0.52234     0.59548     0.63426     0.65212     0.65716     0.65212     0.63426     0.59548     0.52234    
 0.40391     0.25596     0.12783     0.56340E-01 0.27808E-01 0.17912E-01 0.15605E-01 0.17882E-01 0.23996E-01 0.31366E-01
 0.78260E-02 0.70048E-02 0.57021E-02 0.56053E-02 0.79599E-02 0.15605E-01 0.36909E-01 0.92042E-01 0.20674     0.37012    
 0.52076     0.61240     0.65355     0.66542     0.66371     0.66126     0.66371     0.66542     0.65355     0.61240    
 0.52076     0.37012     0.20674     0.92042E-01 0.36909E-01 0.15605E-01 0.79599E-02 0.56053E-02 0.57021E-02 0.70048E-02
 0.14729E-02 0.13348E-02 0.13124E-02 0.21292E-02 0.56053E-02 0.17882E-01 0.54710E-01 0.13983     0.28316     0.45761    
 0.59178     0.65231     0.66027     0.63534     0.60030     0.58383     0.60030     0.63534     0.66027     0.65231    
 0.59178     0.45761     0.28316     0.13983     0.54710E-01 0.17882E-01 0.56053E-02 0.21292E-02 0.13124E-02 0.13348E-02
 0.44228E-03 0.38823E-03 0.46924E-03 0.13124E-02 0.57021E-02 0.23996E-01 0.78420E-01 0.18558     0.34002     0.51256    
 0.62659     0.65944     0.62917     0.55111     0.46357     0.42506     0.46357     0.55111     0.62917     0.65944    
 0.62659     0.51256     0.34002     0.18558     0.78420E-01 0.23996E-01 0.57021E-02 0.13124E-02 0.46924E-03 0.38823E-03
 0.58776E-03 0.38009E-03 0.38823E-03 0.13348E-02 0.70048E-02 0.31366E-01 0.98839E-01 0.21621     0.37327     0.54103    
 0.64016     0.65164     0.58514     0.45275     0.31773     0.26386     0.31773     0.45275     0.58514     0.65164    
 0.64016     0.54103     0.37327     0.21621     0.98839E-01 0.31366E-01 0.70048E-02 0.13348E-02 0.38823E-03 0.38009E-03
 0.54975E-03 0.44228E-03 0.48710E-03 0.13683E-02 0.61152E-02 0.26007E-01 0.84058E-01 0.19450     0.35027     0.52195    
 0.63153     0.65792     0.61710     0.52328     0.42074     0.37658     0.42074     0.52328     0.61710     0.65792    
 0.63153     0.52195     0.35027     0.19450     0.84058E-01 0.26007E-01 0.61152E-02 0.13683E-02 0.48710E-03 0.44228E-03
 0.44228E-03 0.38823E-03 0.46924E-03 0.13124E-02 0.57021E-02 0.23996E-01 0.78420E-01 0.18558     0.34002     0.51256    
 0.62659     0.65944     0.62917     0.55111     0.46357     0.42506     0.46357     0.55111     0.62917     0.65944    
 0.62659     0.51256     0.34002     0.18558     0.78420E-01 0.23996E-01 0.57021E-02 0.13124E-02 0.46924E-03 0.38823E-03
 0.48710E-03 0.46924E-03 0.58622E-03 0.13877E-02 0.50535E-02 0.19471E-01 0.63693E-01 0.15963     0.30885     0.48246    
 0.60828     0.65810     0.65294     0.61091     0.55910     0.53541     0.55910     0.61091     0.65294     0.65810    
 0.60828     0.48246     0.30885     0.15963     0.63693E-01 0.19471E-01 0.50535E-02 0.13877E-02 0.58622E-03 0.46924E-03
 0.13683E-02 0.13124E-02 0.13877E-02 0.21889E-02 0.52592E-02 0.15522E-01 0.46187E-01 0.12120     0.25635     0.42677    
 0.56705     0.64016     0.66351     0.65750     0.64036     0.63154     0.64036     0.65750     0.66351     0.64016    
 0.56705     0.42677     0.25635     0.12120     0.46187E-01 0.15522E-01 0.52592E-02 0.21889E-02 0.13877E-02 0.13124E-02
 0.61152E-02 0.57021E-02 0.50535E-02 0.52592E-02 0.74776E-02 0.14210E-01 0.32627E-01 0.81168E-01 0.18661     0.34157    
 0.49027     0.58935     0.64055     0.66227     0.66854     0.66927     0.66854     0.66227     0.64055     0.58935    
 0.49027     0.34157     0.18661     0.81168E-01 0.32627E-01 0.14210E-01 0.74776E-02 0.52592E-02 0.50535E-02 0.57021E-02
 0.26007E-01 0.23996E-01 0.19471E-01 0.15522E-01 0.14210E-01 0.16611E-01 0.25627E-01 0.51152E-01 0.11555     0.23336    
 0.37259     0.48971     0.56820     0.61338     0.63581     0.64250     0.63581     0.61338     0.56820     0.48971    
 0.37259     0.23336     0.11555     0.51152E-01 0.25627E-01 0.16611E-01 0.14210E-01 0.15522E-01 0.19471E-01 0.23996E-01
 0.84058E-01 0.78420E-01 0.63693E-01 0.46187E-01 0.32627E-01 0.25627E-01 0.25468E-01 0.34938E-01 0.64095E-01 0.12960    
 0.23232     0.34355     0.43580     0.49926     0.53500     0.54643     0.53500     0.49926     0.43580     0.34355    
 0.23232     0.12960     0.64095E-01 0.34938E-01 0.25468E-01 0.25627E-01 0.32627E-01 0.46187E-01 0.63693E-01 0.78420E-01
 0.19450     0.18558     0.15963     0.12120     0.81168E-01 0.51152E-01 0.34938E-01 0.30640E-01 0.38033E-01 0.62730E-01
 0.11376     0.18932     0.26878     0.33151     0.36966     0.38231     0.36966     0.33151     0.26878     0.18932    
 0.11376     0.62730E-01 0.38033E-01 0.30640E-01 0.34938E-01 0.51152E-01 0.81168E-01 0.12120     0.15963     0.18558    
 0.35027     0.34002     0.30885     0.25635     0.18661     0.11555     0.64095E-01 0.38033E-01 0.29786E-01 0.33511E-01
 0.49599E-01 0.81117E-01 0.12496     0.16742     0.19552     0.20498     0.19552     0.16742     0.12496     0.81117E-01
 0.49599E-01 0.33511E-01 0.29786E-01 0.38033E-01 0.64095E-01 0.11555     0.18661     0.25635     0.30885     0.34002    
 0.52195     0.51256     0.48246     0.42677     0.34157     0.23336     0.12960     0.62730E-01 0.33511E-01 0.24578E-01
 0.25555E-01 0.33603E-01 0.47908E-01 0.64692E-01 0.77327E-01 0.81800E-01 0.77327E-01 0.64692E-01 0.47908E-01 0.33603E-01
 0.25555E-01 0.24578E-01 0.33511E-01 0.62730E-01 0.12960     0.23336     0.34157     0.42677     0.48246     0.51256    
 0.63153     0.62659     0.60828     0.56705     0.49027     0.37259     0.23232     0.11376     0.49599E-01 0.25555E-01
 0.18392E-01 0.17831E-01 0.20640E-01 0.25058E-01 0.28807E-01 0.30202E-01 0.28807E-01 0.25058E-01 0.20640E-01 0.17831E-01
 0.18392E-01 0.25555E-01 0.49599E-01 0.11376     0.23232     0.37259     0.49027     0.56705     0.60828     0.62659    
 0.65792     0.65944     0.65810     0.64016     0.58935     0.48971     0.34355     0.18932     0.81117E-01 0.33603E-01
 0.17831E-01 0.13020E-01 0.12070E-01 0.12731E-01 0.13723E-01 0.14147E-01 0.13723E-01 0.12731E-01 0.12070E-01 0.13020E-01
 0.17831E-01 0.33603E-01 0.81117E-01 0.18932     0.34355     0.48971     0.58935     0.64016     0.65810     0.65944    
 0.61710     0.62917     0.65294     0.66351     0.64055     0.56820     0.43580     0.26878     0.12496     0.47908E-01
 0.20640E-01 0.12070E-01 0.93699E-02 0.88136E-02 0.90289E-02 0.91984E-02 0.90289E-02 0.88136E-02 0.93699E-02 0.12070E-01
 0.20640E-01 0.47908E-01 0.12496     0.26878     0.43580     0.56820     0.64055     0.66351     0.65294     0.62917    
 0.52328     0.55111     0.61091     0.65750     0.66227     0.61338     0.49926     0.33151     0.16742     0.64692E-01
 0.25058E-01 0.12731E-01 0.88136E-02 0.77229E-02 0.76982E-02 0.78086E-02 0.76982E-02 0.77229E-02 0.88136E-02 0.12731E-01
 0.25058E-01 0.64692E-01 0.16742     0.33151     0.49926     0.61338     0.66227     0.65750     0.61091     0.55111    
 0.42074     0.46357     0.55910     0.64036     0.66854     0.63581     0.53500     0.36966     0.19552     0.77327E-01
 0.28807E-01 0.13723E-01 0.90289E-02 0.76982E-02 0.76304E-02 0.77527E-02 0.76304E-02 0.76982E-02 0.90289E-02 0.13723E-01
 0.28807E-01 0.77327E-01 0.19552     0.36966     0.53500     0.63581     0.66854     0.64036     0.55910     0.46357    
 0.37658     0.42506     0.53541     0.63154     0.66927     0.64250     0.54643     0.38231     0.20498     0.81800E-01
 0.30202E-01 0.14147E-01 0.91984E-02 0.78086E-02 0.77527E-02 0.78921E-02 0.77527E-02 0.78086E-02 0.91984E-02 0.14147E-01
 0.30202E-01 0.81800E-01 0.20498     0.38231     0.54643     0.64250     0.66927     0.63154     0.53541     0.42506    
 0.42074     0.46357     0.55910     0.64036     0.66854     0.63581     0.53500     0.36966     0.19552     0.77327E-01
 0.28807E-01 0.13723E-01 0.90289E-02 0.76982E-02 0.76304E-02 0.77527E-02 0.76304E-02 0.76982E-02 0.90289E-02 0.13723E-01
 0.28807E-01 0.77327E-01 0.19552     0.36966     0.53500     0.63581     0.66854     0.64036     0.55910     0.46357    
 0.52328     0.55111     0.61091     0.65750     0.66227     0.61338     0.49926     0.33151     0.16742     0.64692E-01
 0.25058E-01 0.12731E-01 0.88136E-02 0.77229E-02 0.76982E-02 0.78086E-02 0.76982E-02 0.77229E-02 0.88136E-02 0.12731E-01
 0.25058E-01 0.64692E-01 0.16742     0.33151     0.49926     0.61338     0.66227     0.65750     0.61091     0.55111    
 0.61710     0.62917     0.65294     0.66351     0.64055     0.56820     0.43580     0.26878     0.12496     0.47908E-01
 0.20640E-01 0.12070E-01 0.93699E-02 0.88136E-02 0.90289E-02 0.91984E-02 0.90289E-02 0.88136E-02 0.93699E-02 0.12070E-01
 0.20640E-01 0.47908E-01 0.12496     0.26878     0.43580     0.56820     0.64055     0.66351     0.65294     0.62917    
 0.65792     0.65944     0.65810     0.64016     0.58935     0.48971     0.34355     0.18932     0.81117E-01 0.33603E-01
 0.17831E-01 0.13020E-01 0.12070E-01 0.12731E-01 0.13723E-01 0.14147E-01 0.13723E-01 0.12731E-01 0.12070E-01 0.13020E-01
 0.17831E-01 0.33603E-01 0.81117E-01 0.18932     0.34355     0.48971     0.58935     0.64016     0.65810     0.65944    
 0.63153     0.62659     0.60828     0.56705     0.49027     0.37259     0.23232     0.11376     0.49599E-01 0.25555E-01
 0.18392E-01 0.17831E-01 0.20640E-01 0.25058E-01 0.28807E-01 0.30202E-01 0.28807E-01 0.25058E-01 0.20640E-01 0.17831E-01
 0.18392E-01 0.25555E-01 0.49599E-01 0.11376     0.23232     0.37259     0.49027     0.56705     0.60828     0.62659    
 0.52195     0.51256     0.48246     0.42677     0.34157     0.23336     0.12960     0.62730E-01 0.33511E-01 0.24578E-01