 running on   32 total cores
 distrk:  each k-point on   32 cores,    1 groups
 distr:  one band on    8 cores,    4 groups
 using from now: INCAR     
 vasp.5.3.3 18Dez12 (build Jun 24 2015 15:58:02) complex                        
  
 POSCAR found type information on POSCAR  Ba Ti O 
 POSCAR found :  3 types and       5 ions
 scaLAPACK will be used

 ----------------------------------------------------------------------------- 
|                                                                             |
|           W    W    AA    RRRRR   N    N  II  N    N   GGGG   !!!           |
|           W    W   A  A   R    R  NN   N  II  NN   N  G    G  !!!           |
|           W    W  A    A  R    R  N N  N  II  N N  N  G       !!!           |
|           W WW W  AAAAAA  RRRRR   N  N N  II  N  N N  G  GGG   !            |
|           WW  WW  A    A  R   R   N   NN  II  N   NN  G    G                |
|           W    W  A    A  R    R  N    N  II  N    N   GGGG   !!!           |
|                                                                             |
|      For LVTOT=.TRUE. VASP.5.x writes the TOTAL local potential to          |
|      the file LOCPOT. If you want the Hartree contributions only, use       |
|      LVHAR=.TRUE. instead.                                                  |
|                                                                             |
 ----------------------------------------------------------------------------- 

 LDA part: xc-table for Pade appr. of Perdew
 WARNING: stress and forces are not correct
 POSCAR, INCAR and KPOINTS ok, starting setup
 FFT: planning ...
 WAVECAR not read
 charge-density read from file: Perovskite                              
 magnetization density read from file 1
 entering main loop
       N       E                     dE             d eps       ncg     rms          rms(c)
DAV:   1     0.363697535173E+03    0.36370E+03   -0.12335E+04 29260   0.132E+03
DAV:   2     0.411442168711E+02   -0.32255E+03   -0.30318E+03 29336   0.370E+02
DAV:   3    -0.322478965341E+02   -0.73392E+02   -0.65935E+02 42652   0.160E+02
DAV:   4    -0.410779776043E+02   -0.88301E+01   -0.82049E+01 44688   0.671E+01
DAV:   5    -0.413254820519E+02   -0.24750E+00   -0.24566E+00 45092   0.120E+01
RMM:   6    -0.413307899465E+02   -0.53079E-02   -0.53079E-02 37822   0.162E+00
RMM:   7    -0.413320464410E+02   -0.12565E-02   -0.12338E-02 40099   0.450E-01
RMM:   8    -0.413322031070E+02   -0.15667E-03   -0.16393E-03 36334   0.253E-01
RMM:   9    -0.413322317714E+02   -0.28664E-04   -0.28475E-04 30845   0.701E-02
RMM:  10    -0.413322349528E+02   -0.31814E-05   -0.33183E-05 24316   0.448E-02
   1 F= -.41332235E+02 E0= -.41332235E+02  d E =-.430537E-28  mag=    -0.0000
 writing wavefunctions
