       N       E                     dE             d eps       ncg     rms          rms(c)
DAV:   1     0.363697535173E+03    0.36370E+03   -0.12335E+04 29260   0.132E+03
DAV:   2     0.411442168711E+02   -0.32255E+03   -0.30318E+03 29336   0.370E+02
DAV:   3    -0.322478965341E+02   -0.73392E+02   -0.65935E+02 42652   0.160E+02
DAV:   4    -0.410779776043E+02   -0.88301E+01   -0.82049E+01 44688   0.671E+01
DAV:   5    -0.413254820519E+02   -0.24750E+00   -0.24566E+00 45092   0.120E+01
RMM:   6    -0.413307899465E+02   -0.53079E-02   -0.53079E-02 37822   0.162E+00
RMM:   7    -0.413320464410E+02   -0.12565E-02   -0.12338E-02 40099   0.450E-01
RMM:   8    -0.413322031070E+02   -0.15667E-03   -0.16393E-03 36334   0.253E-01
RMM:   9    -0.413322317714E+02   -0.28664E-04   -0.28475E-04 30845   0.701E-02
RMM:  10    -0.413322349528E+02   -0.31814E-05   -0.33183E-05 24316   0.448E-02
   1 F= -.41332235E+02 E0= -.41332235E+02  d E =-.430537E-28  mag=    -0.0000
