 vasp.5.3.3 18Dez12 (build Jun 24 2015 15:58:02) complex                        
  
 executed on             LinuxIFC date 2023.04.24  08:21:03
 running on   32 total cores
 distrk:  each k-point on   32 cores,    1 groups
 distr:  one band on NCORES_PER_BAND=   1 cores,   32 groups


--------------------------------------------------------------------------------------------------------


 INCAR:
 POTCAR:    PAW Ba_sv_GW 23Mar2010                
 POTCAR:    PAW_PBE Ti 08Apr2002                  
 POTCAR:    PAW_PBE O 08Apr2002                   

 ----------------------------------------------------------------------------- 
|                                                                             |
|           W    W    AA    RRRRR   N    N  II  N    N   GGGG   !!!           |
|           W    W   A  A   R    R  NN   N  II  NN   N  G    G  !!!           |
|           W    W  A    A  R    R  N N  N  II  N N  N  G       !!!           |
|           W WW W  AAAAAA  RRRRR   N  N N  II  N  N N  G  GGG   !            |
|           WW  WW  A    A  R   R   N   NN  II  N   NN  G    G                |
|           W    W  A    A  R    R  N    N  II  N    N   GGGG   !!!           |
|                                                                             |
|      For optimal performance we recommend that you set                      |
|        NPAR = 4 - approx SQRT( number of cores)                             |
|      (number of cores/NPAR must be integer)                                 |
|      This setting will greatly improve the performance of VASP for DFT.     |
|      The default NPAR=number of cores might be grossly inefficient          |
|      on modern multi-core architectures or massively parallel machines.     |
|      Do your own testing.                                                   |
|      Unfortunately you need to use the default for hybrid, GW and RPA       |
|      calculations.                                                          |
|                                                                             |
 ----------------------------------------------------------------------------- 

 POTCAR:    PAW Ba_sv_GW 23Mar2010                
   VRHFIN =Ba: s2p6s2                                                           
   LEXCH  = PE                                                                  
   EATOM  =   697.9719 eV,   51.2995 Ry                                         
                                                                                
   TITEL  = PAW Ba_sv_GW 23Mar2010                                              
   LULTRA =        F    use ultrasoft PP ?                                      
   IUNSCR =        1    unscreen: 0-lin 1-nonlin 2-no                           
   RPACOR =    1.700    partial core radius                                     
   POMASS =  137.327; ZVAL   =   10.000    mass and valenz                      
   RCORE  =    2.800    outmost cutoff radius                                   
   RWIGS  =    2.800; RWIGS  =    1.482    wigner-seitz radius (au A)           
   ENMAX  =  237.515; ENMIN  =  178.136 eV                                      
   RCLOC  =    1.812    cutoff for local pot                                    
   LCOR   =        T    correct aug charges                                     
   LPAW   =        T    paw PP                                                  
   EAUG   =  517.374                                                            
   DEXC   =    0.000                                                            
   RMAX   =    2.865    core radius for proj-oper                               
   RAUG   =    1.300    factor for augmentation sphere                          
   RDEP   =    2.976    radius for radial grids                                 
   RDEPT  =    2.289    core radius for aug-charge                              
                                                                                
   Atomic configuration                                                         
   13 entries                                                                   
     n  l   j            E        occ.                                          
     1  0  0.50    -37247.6435   2.0000                                         
     2  0  0.50     -5885.1095   2.0000                                         
     2  1  1.50     -5276.3222   6.0000                                         
     3  0  0.50     -1240.6595   2.0000                                         
     3  1  1.50     -1045.5914   6.0000                                         
     3  2  2.50      -762.5379  10.0000                                         
     4  0  0.50      -241.7620   2.0000                                         
     4  1  1.50      -178.8584   6.0000                                         
     4  2  2.50       -87.5699  10.0000                                         
     5  0  0.50       -31.6128   2.0000                                         
     5  1  1.50       -16.8554   6.0000                                         
     5  2  2.50        -0.9753   2.0000                                         
     5  3  2.50        -1.3606   0.0000                                         
   Description                                                                  
     l       E           TYP  RCUT    TYP  RCUT                                 
     0    -31.6127718     23  1.600                                             
     0    -32.9733544     23  1.600                                             
     1    -16.8553715     23  2.000                                             
     1    -18.2159541     23  2.000                                             
     2     -0.9753239     23  2.500                                             
     2      6.3165484     23  2.500                                             
     3      2.7211652     23  2.800                                             
     3      5.4423304     23  2.800                                             
  local pseudopotential read in
  partial core-charges read in
  partial kinetic energy density read in
  kinetic energy density of atom read in
  atomic valenz-charges read in
  non local Contribution for L=           0  read in
    real space projection operators read in
  non local Contribution for L=           0  read in
    real space projection operators read in
  non local Contribution for L=           1  read in
    real space projection operators read in
  non local Contribution for L=           1  read in
    real space projection operators read in
  non local Contribution for L=           2  read in
    real space projection operators read in
  non local Contribution for L=           2  read in
    real space projection operators read in
  non local Contribution for L=           3  read in
    real space projection operators read in
  non local Contribution for L=           3  read in
    real space projection operators read in
    PAW grid and wavefunctions read in
 
   number of l-projection  operators is LMAX  =           8
   number of lm-projection operators is LMMAX =          32
 
 POTCAR:    PAW_PBE Ti 08Apr2002                  
   VRHFIN =Ti: d3 s1                                                            
   LEXCH  = PE                                                                  
   EATOM  =    94.7928 eV,    6.9671 Ry                                         
                                                                                
   TITEL  = PAW_PBE Ti 08Apr2002                                                
   LULTRA =        F    use ultrasoft PP ?                                      
   IUNSCR =        1    unscreen: 0-lin 1-nonlin 2-no                           
   RPACOR =    2.200    partial core radius                                     
   POMASS =   47.880; ZVAL   =    4.000    mass and valenz                      
   RCORE  =    2.800    outmost cutoff radius                                   
   RWIGS  =    2.500; RWIGS  =    1.323    wigner-seitz radius (au A)           
   ENMAX  =  178.330; ENMIN  =  133.747 eV                                      
   RCLOC  =    2.215    cutoff for local pot                                    
   LCOR   =        T    correct aug charges                                     
   LPAW   =        T    paw PP                                                  
   EAUG   =  328.883                                                            
   DEXC   =    0.000                                                            
   RMAX   =    2.868    core radius for proj-oper                               
   RAUG   =    1.300    factor for augmentation sphere                          
   RDEP   =    2.885    radius for radial grids                                 
   RDEPT  =    2.320    core radius for aug-charge                              
                                                                                
   Atomic configuration                                                         
    9 entries                                                                   
     n  l   j            E        occ.                                          
     1  0  0.50     -4865.3608   2.0000                                         
     2  0  0.50      -533.1367   2.0000                                         
     2  1  1.50      -440.5031   6.0000                                         
     3  0  0.50       -59.3186   2.0000                                         
     3  1  1.50       -35.7012   6.0000                                         
     3  2  2.50        -1.9157   3.0000                                         
     4  0  0.50        -3.7291   1.0000                                         
     4  1  1.50        -4.0817   0.0000                                         
     4  3  2.50        -1.3606   0.0000                                         
   Description                                                                  
     l       E           TYP  RCUT    TYP  RCUT                                 
     2     -1.9156924     23  2.800                                             
     2     -0.4062961     23  2.800                                             
     0     -3.7290832     23  2.800                                             
     0     20.4087390     23  2.800                                             
     1     -5.4423304     23  2.800                                             
  local pseudopotential read in
  partial core-charges read in
  partial kinetic energy density read in
  atomic valenz-charges read in
  non local Contribution for L=           2  read in
    real space projection operators read in
  non local Contribution for L=           2  read in
    real space projection operators read in
  non local Contribution for L=           0  read in
    real space projection operators read in
  non local Contribution for L=           0  read in
    real space projection operators read in
  non local Contribution for L=           1  read in
    real space projection operators read in
    PAW grid and wavefunctions read in
 
   number of l-projection  operators is LMAX  =           5
   number of lm-projection operators is LMMAX =          15
 
 POTCAR:    PAW_PBE O 08Apr2002                   
   VRHFIN =O: s2p4                                                              
   LEXCH  = PE                                                                  
   EATOM  =   432.3788 eV,   31.7789 Ry                                         
                                                                                
   TITEL  = PAW_PBE O 08Apr2002                                                 
   LULTRA =        F    use ultrasoft PP ?                                      
   IUNSCR =        1    unscreen: 0-lin 1-nonlin 2-no                           
   RPACOR =    1.200    partial core radius                                     
   POMASS =   16.000; ZVAL   =    6.000    mass and valenz                      
   RCORE  =    1.520    outmost cutoff radius                                   
   RWIGS  =    1.550; RWIGS  =    0.820    wigner-seitz radius (au A)           
   ENMAX  =  400.000; ENMIN  =  300.000 eV                                      
   ICORE  =        2    local potential                                         
   LCOR   =        T    correct aug charges                                     
   LPAW   =        T    paw PP                                                  
   EAUG   =  605.392                                                            
   DEXC   =    0.000                                                            
   RMAX   =    1.553    core radius for proj-oper                               
   RAUG   =    1.300    factor for augmentation sphere                          
   RDEP   =    1.550    radius for radial grids                                 
   RDEPT  =    1.329    core radius for aug-charge                              
                                                                                
   Atomic configuration                                                         
    4 entries                                                                   
     n  l   j            E        occ.                                          
     1  0  0.50      -514.6923   2.0000                                         
     2  0  0.50       -23.9615   2.0000                                         
     2  1  0.50        -9.0305   4.0000                                         
     3  2  1.50        -9.5241   0.0000                                         
   Description                                                                  
     l       E           TYP  RCUT    TYP  RCUT                                 
     0    -23.9615318     23  1.200                                             
     0     -9.5240782     23  1.200                                             
     1     -9.0304911     23  1.520                                             
     1      8.1634956     23  1.520                                             
     2     -9.5240782      7  1.500                                             
  local pseudopotential read in
  partial core-charges read in
  partial kinetic energy density read in
  kinetic energy density of atom read in
  atomic valenz-charges read in
  non local Contribution for L=           0  read in
    real space projection operators read in
  non local Contribution for L=           0  read in
    real space projection operators read in
  non local Contribution for L=           1  read in
    real space projection operators read in
  non local Contribution for L=           1  read in
    real space projection operators read in
    PAW grid and wavefunctions read in
 
   number of l-projection  operators is LMAX  =           4
   number of lm-projection operators is LMMAX =           8
 
  PAW Ba_sv_GW 23Mar2010                :
 energy of atom  1       EATOM= -697.9719
 kinetic energy error for atom=    0.0101 (will be added to EATOM!!)
  PAW_PBE Ti 08Apr2002                  :
 energy of atom  2       EATOM=  -94.7928
 kinetic energy error for atom=    0.0002 (will be added to EATOM!!)
  PAW_PBE O 08Apr2002                   :
 energy of atom  3       EATOM= -432.3788
 kinetic energy error for atom=    0.0224 (will be added to EATOM!!)
 
 
 POSCAR: Ba1 Ti1 O3                              
  positions in direct lattice
  No initial velocities read in
 exchange correlation table for  LEXCH =        8
   RHO(1)=    0.500       N(1)  =     2000
   RHO(2)=  100.500       N(2)  =     4000
 


--------------------------------------------------------------------------------------------------------


 ion  position               nearest neighbor table
   1  0.500  0.500  0.500-
   2  0.000  0.000  0.000-   3 2.00   4 2.00   5 2.00   5 2.00   4 2.00   3 2.00
   3  0.500  0.000  0.000-   2 2.00   2 2.00
   4  0.000  0.500  0.000-   2 2.00   2 2.00
   5  0.000  0.000  0.500-   2 2.00   2 2.00
 
  LATTYP: Found a simple cubic cell.
 ALAT       =     4.0076816357
  
  Lattice vectors:
  
 A1 = (   4.0076816357,   0.0000000000,   0.0000000000)
 A2 = (   0.0000000000,   4.0076816357,   0.0000000000)
 A3 = (   0.0000000000,   0.0000000000,   4.0076816357)


Analysis of symmetry for initial positions (statically):
=====================================================================
 Subroutine PRICEL returns:
 Original cell was already a primitive cell.
 

 Routine SETGRP: Setting up the symmetry group for a 
 simple cubic supercell.


 Subroutine GETGRP returns: Found 48 space group operations
 (whereof 48 operations were pure point group operations)
 out of a pool of 48 trial point group operations.


The static configuration has the point symmetry O_h .


Analysis of symmetry for dynamics (positions and initial velocities):
=====================================================================
 Subroutine PRICEL returns:
 Original cell was already a primitive cell.
 

 Routine SETGRP: Setting up the symmetry group for a 
 simple cubic supercell.


 Subroutine GETGRP returns: Found 48 space group operations
 (whereof 48 operations were pure point group operations)
 out of a pool of 48 trial point group operations.


The dynamic configuration has the point symmetry O_h .


Analysis of magnetic symmetry:
=====================================================================

 Subroutine MAGSYM returns: Found 48 space group operations
 (whereof 48 operations were pure point group operations)
 out of a pool of 48 trial space group operations
 (whereof 48 operations were pure point group operations)
 and found also     1 'primitive' translations


The magnetic configuration has the point symmetry O_h .


 irot  :   1
 --------------------------------------------------------------------
 isymop:   1   0   0
           0   1   0
           0   0   1

 gtrans:     0.0000000     0.0000000     0.0000000

 ptrans:     0.0000000     0.0000000     0.0000000
 rotmap:
 (   1->   1)  (   2->   2)  (   3->   3)  (   4->   4)  (   5->   5) 


 irot  :   2
 --------------------------------------------------------------------
 isymop:  -1   0   0
           0  -1   0
           0   0  -1

 gtrans:     0.0000000     0.0000000     0.0000000

 ptrans:     0.0000000     0.0000000     0.0000000
 rotmap:
 (   1->   1)  (   2->   2)  (   3->   3)  (   4->   4)  (   5->   5) 


 irot  :   3
 --------------------------------------------------------------------
 isymop:   0   0   1
           1   0   0
           0   1   0

 gtrans:     0.0000000     0.0000000     0.0000000

 ptrans:     0.0000000     0.0000000     0.0000000
 rotmap:
 (   1->   1)  (   2->   2)  (   3->   4)  (   4->   5)  (   5->   3) 


 irot  :   4
 --------------------------------------------------------------------
 isymop:   0   0  -1
          -1   0   0
           0  -1   0

 gtrans:     0.0000000     0.0000000     0.0000000

 ptrans:     0.0000000     0.0000000     0.0000000
 rotmap:
 (   1->   1)  (   2->   2)  (   3->   4)  (   4->   5)  (   5->   3) 


 irot  :   5
 --------------------------------------------------------------------
 isymop:   0   1   0
           0   0   1
           1   0   0

 gtrans:     0.0000000     0.0000000     0.0000000

 ptrans:     0.0000000     0.0000000     0.0000000
 rotmap:
 (   1->   1)  (   2->   2)  (   3->   5)  (   4->   3)  (   5->   4) 


 irot  :   6
 --------------------------------------------------------------------
 isymop:   0  -1   0
           0   0  -1
          -1   0   0

 gtrans:     0.0000000     0.0000000     0.0000000

 ptrans:     0.0000000     0.0000000     0.0000000
 rotmap:
 (   1->   1)  (   2->   2)  (   3->   5)  (   4->   3)  (   5->   4) 


 irot  :   7
 --------------------------------------------------------------------
 isymop:   0  -1   0
           1   0   0
           0   0   1

 gtrans:     0.0000000     0.0000000     0.0000000

 ptrans:     0.0000000     0.0000000     0.0000000
 rotmap:
 (   1->   1)  (   2->   2)  (   3->   4)  (   4->   3)  (   5->   5) 


 irot  :   8
 --------------------------------------------------------------------
 isymop:   0   1   0
          -1   0   0
           0   0  -1

 gtrans:     0.0000000     0.0000000     0.0000000

 ptrans:     0.0000000     0.0000000     0.0000000
 rotmap:
 (   1->   1)  (   2->   2)  (   3->   4)  (   4->   3)  (   5->   5) 


 irot  :   9
 --------------------------------------------------------------------
 isymop:  -1   0   0
           0   0   1
           0   1   0

 gtrans:     0.0000000     0.0000000     0.0000000

 ptrans:     0.0000000     0.0000000     0.0000000
 rotmap:
 (   1->   1)  (   2->   2)  (   3->   3)  (   4->   5)  (   5->   4) 


 irot  :  10
 --------------------------------------------------------------------
 isymop:   1   0   0
           0   0  -1
           0  -1   0

 gtrans:     0.0000000     0.0000000     0.0000000

 ptrans:     0.0000000     0.0000000     0.0000000
 rotmap:
 (   1->   1)  (   2->   2)  (   3->   3)  (   4->   5)  (   5->   4) 


 irot  :  11
 --------------------------------------------------------------------
 isymop:   0   0  -1
           0   1   0
           1   0   0

 gtrans:     0.0000000     0.0000000     0.0000000

 ptrans:     0.0000000     0.0000000     0.0000000
 rotmap:
 (   1->   1)  (   2->   2)  (   3->   5)  (   4->   4)  (   5->   3) 


 irot  :  12
 --------------------------------------------------------------------
 isymop:   0   0   1
           0  -1   0
          -1   0   0

 gtrans:     0.0000000     0.0000000     0.0000000

 ptrans:     0.0000000     0.0000000     0.0000000
 rotmap:
 (   1->   1)  (   2->   2)  (   3->   5)  (   4->   4)  (   5->   3) 


 irot  :  13
 --------------------------------------------------------------------
 isymop:  -1   0   0
           0  -1   0
           0   0   1

 gtrans:     0.0000000     0.0000000     0.0000000

 ptrans:     0.0000000     0.0000000     0.0000000
 rotmap:
 (   1->   1)  (   2->   2)  (   3->   3)  (   4->   4)  (   5->   5) 


 irot  :  14
 --------------------------------------------------------------------
 isymop:   1   0   0
           0   1   0
           0   0  -1

 gtrans:     0.0000000     0.0000000     0.0000000

 ptrans:     0.0000000     0.0000000     0.0000000
 rotmap:
 (   1->   1)  (   2->   2)  (   3->   3)  (   4->   4)  (   5->   5) 


 irot  :  15
 --------------------------------------------------------------------
 isymop:   0   0  -1
          -1   0   0
           0   1   0

 gtrans:     0.0000000     0.0000000     0.0000000

 ptrans:     0.0000000     0.0000000     0.0000000
 rotmap:
 (   1->   1)  (   2->   2)  (   3->   4)  (   4->   5)  (   5->   3) 


 irot  :  16
 --------------------------------------------------------------------
 isymop:   0   0   1
           1   0   0
           0  -1   0

 gtrans:     0.0000000     0.0000000     0.0000000

 ptrans:     0.0000000     0.0000000     0.0000000
 rotmap:
 (   1->   1)  (   2->   2)  (   3->   4)  (   4->   5)  (   5->   3) 


 irot  :  17
 --------------------------------------------------------------------
 isymop:   0  -1   0
           0   0  -1
           1   0   0

 gtrans:     0.0000000     0.0000000     0.0000000

 ptrans:     0.0000000     0.0000000     0.0000000
 rotmap:
 (   1->   1)  (   2->   2)  (   3->   5)  (   4->   3)  (   5->   4) 


 irot  :  18
 --------------------------------------------------------------------
 isymop:   0   1   0
           0   0   1
          -1   0   0

 gtrans:     0.0000000     0.0000000     0.0000000

 ptrans:     0.0000000     0.0000000     0.0000000
 rotmap:
 (   1->   1)  (   2->   2)  (   3->   5)  (   4->   3)  (   5->   4) 


 irot  :  19
 --------------------------------------------------------------------
 isymop:   0   1   0
          -1   0   0
           0   0   1

 gtrans:     0.0000000     0.0000000     0.0000000

 ptrans:     0.0000000     0.0000000     0.0000000
 rotmap:
 (   1->   1)  (   2->   2)  (   3->   4)  (   4->   3)  (   5->   5) 


 irot  :  20
 --------------------------------------------------------------------
 isymop:   0  -1   0
           1   0   0
           0   0  -1

 gtrans:     0.0000000     0.0000000     0.0000000

 ptrans:     0.0000000     0.0000000     0.0000000
 rotmap:
 (   1->   1)  (   2->   2)  (   3->   4)  (   4->   3)  (   5->   5) 


 irot  :  21
 --------------------------------------------------------------------
 isymop:   1   0   0
           0   0  -1
           0   1   0

 gtrans:     0.0000000     0.0000000     0.0000000

 ptrans:     0.0000000     0.0000000     0.0000000
 rotmap:
 (   1->   1)  (   2->   2)  (   3->   3)  (   4->   5)  (   5->   4) 


 irot  :  22
 --------------------------------------------------------------------
 isymop:  -1   0   0
           0   0   1
           0  -1   0

 gtrans:     0.0000000     0.0000000     0.0000000

 ptrans:     0.0000000     0.0000000     0.0000000
 rotmap:
 (   1->   1)  (   2->   2)  (   3->   3)  (   4->   5)  (   5->   4) 


 irot  :  23
 --------------------------------------------------------------------
 isymop:   0   0   1
           0  -1   0
           1   0   0

 gtrans:     0.0000000     0.0000000     0.0000000

 ptrans:     0.0000000     0.0000000     0.0000000
 rotmap:
 (   1->   1)  (   2->   2)  (   3->   5)  (   4->   4)  (   5->   3) 


 irot  :  24
 --------------------------------------------------------------------
 isymop:   0   0  -1
           0   1   0
          -1   0   0

 gtrans:     0.0000000     0.0000000     0.0000000

 ptrans:     0.0000000     0.0000000     0.0000000
 rotmap:
 (   1->   1)  (   2->   2)  (   3->   5)  (   4->   4)  (   5->   3) 


 irot  :  25
 --------------------------------------------------------------------
 isymop:   0   0   1
          -1   0   0
           0  -1   0

 gtrans:     0.0000000     0.0000000     0.0000000

 ptrans:     0.0000000     0.0000000     0.0000000
 rotmap:
 (   1->   1)  (   2->   2)  (   3->   4)  (   4->   5)  (   5->   3) 


 irot  :  26
 --------------------------------------------------------------------
 isymop:   0   0  -1
           1   0   0
           0   1   0

 gtrans:     0.0000000     0.0000000     0.0000000

 ptrans:     0.0000000     0.0000000     0.0000000
 rotmap:
 (   1->   1)  (   2->   2)  (   3->   4)  (   4->   5)  (   5->   3) 


 irot  :  27
 --------------------------------------------------------------------
 isymop:   0   1   0
           0   0  -1
          -1   0   0

 gtrans:     0.0000000     0.0000000     0.0000000

 ptrans:     0.0000000     0.0000000     0.0000000
 rotmap:
 (   1->   1)  (   2->   2)  (   3->   5)  (   4->   3)  (   5->   4) 


 irot  :  28
 --------------------------------------------------------------------
 isymop:   0  -1   0
           0   0   1
           1   0   0

 gtrans:     0.0000000     0.0000000     0.0000000

 ptrans:     0.0000000     0.0000000     0.0000000
 rotmap:
 (   1->   1)  (   2->   2)  (   3->   5)  (   4->   3)  (   5->   4) 


 irot  :  29
 --------------------------------------------------------------------
 isymop:   1   0   0
           0  -1   0
           0   0  -1

 gtrans:     0.0000000     0.0000000     0.0000000

 ptrans:     0.0000000     0.0000000     0.0000000
 rotmap:
 (   1->   1)  (   2->   2)  (   3->   3)  (   4->   4)  (   5->   5) 


 irot  :  30
 --------------------------------------------------------------------
 isymop:  -1   0   0
           0   1   0
           0   0   1

 gtrans:     0.0000000     0.0000000     0.0000000

 ptrans:     0.0000000     0.0000000     0.0000000
 rotmap:
 (   1->   1)  (   2->   2)  (   3->   3)  (   4->   4)  (   5->   5) 


 irot  :  31
 --------------------------------------------------------------------
 isymop:   0   0   1
           0   1   0
          -1   0   0

 gtrans:     0.0000000     0.0000000     0.0000000

 ptrans:     0.0000000     0.0000000     0.0000000
 rotmap:
 (   1->   1)  (   2->   2)  (   3->   5)  (   4->   4)  (   5->   3) 


 irot  :  32
 --------------------------------------------------------------------
 isymop:   0   0  -1
           0  -1   0
           1   0   0

 gtrans:     0.0000000     0.0000000     0.0000000

 ptrans:     0.0000000     0.0000000     0.0000000
 rotmap:
 (   1->   1)  (   2->   2)  (   3->   5)  (   4->   4)  (   5->   3) 


 irot  :  33
 --------------------------------------------------------------------
 isymop:   0   1   0
           1   0   0
           0   0  -1

 gtrans:     0.0000000     0.0000000     0.0000000

 ptrans:     0.0000000     0.0000000     0.0000000
 rotmap:
 (   1->   1)  (   2->   2)  (   3->   4)  (   4->   3)  (   5->   5) 


 irot  :  34
 --------------------------------------------------------------------
 isymop:   0  -1   0
          -1   0   0
           0   0   1

 gtrans:     0.0000000     0.0000000     0.0000000

 ptrans:     0.0000000     0.0000000     0.0000000
 rotmap:
 (   1->   1)  (   2->   2)  (   3->   4)  (   4->   3)  (   5->   5) 


 irot  :  35
 --------------------------------------------------------------------
 isymop:   1   0   0
           0   0   1
           0  -1   0

 gtrans:     0.0000000     0.0000000     0.0000000

 ptrans:     0.0000000     0.0000000     0.0000000
 rotmap:
 (   1->   1)  (   2->   2)  (   3->   3)  (   4->   5)  (   5->   4) 


 irot  :  36
 --------------------------------------------------------------------
 isymop:  -1   0   0
           0   0  -1
           0   1   0

 gtrans:     0.0000000     0.0000000     0.0000000

 ptrans:     0.0000000     0.0000000     0.0000000
 rotmap:
 (   1->   1)  (   2->   2)  (   3->   3)  (   4->   5)  (   5->   4) 


 irot  :  37
 --------------------------------------------------------------------
 isymop:   0  -1   0
           0   0   1
          -1   0   0

 gtrans:     0.0000000     0.0000000     0.0000000

 ptrans:     0.0000000     0.0000000     0.0000000
 rotmap:
 (   1->   1)  (   2->   2)  (   3->   5)  (   4->   3)  (   5->   4) 


 irot  :  38
 --------------------------------------------------------------------
 isymop:   0   1   0
           0   0  -1
           1   0   0

 gtrans:     0.0000000     0.0000000     0.0000000

 ptrans:     0.0000000     0.0000000     0.0000000
 rotmap:
 (   1->   1)  (   2->   2)  (   3->   5)  (   4->   3)  (   5->   4) 


 irot  :  39
 --------------------------------------------------------------------
 isymop:  -1   0   0
           0   1   0
           0   0  -1

 gtrans:     0.0000000     0.0000000     0.0000000

 ptrans:     0.0000000     0.0000000     0.0000000
 rotmap:
 (   1->   1)  (   2->   2)  (   3->   3)  (   4->   4)  (   5->   5) 


 irot  :  40
 --------------------------------------------------------------------
 isymop:   1   0   0
           0  -1   0
           0   0   1

 gtrans:     0.0000000     0.0000000     0.0000000

 ptrans:     0.0000000     0.0000000     0.0000000
 rotmap:
 (   1->   1)  (   2->   2)  (   3->   3)  (   4->   4)  (   5->   5) 


 irot  :  41
 --------------------------------------------------------------------
 isymop:   0   0  -1
           1   0   0
           0  -1   0

 gtrans:     0.0000000     0.0000000     0.0000000

 ptrans:     0.0000000     0.0000000     0.0000000
 rotmap:
 (   1->   1)  (   2->   2)  (   3->   4)  (   4->   5)  (   5->   3) 


 irot  :  42
 --------------------------------------------------------------------
 isymop:   0   0   1
          -1   0   0
           0   1   0

 gtrans:     0.0000000     0.0000000     0.0000000

 ptrans:     0.0000000     0.0000000     0.0000000
 rotmap:
 (   1->   1)  (   2->   2)  (   3->   4)  (   4->   5)  (   5->   3) 


 irot  :  43
 --------------------------------------------------------------------
 isymop:  -1   0   0
           0   0  -1
           0  -1   0

 gtrans:     0.0000000     0.0000000     0.0000000

 ptrans:     0.0000000     0.0000000     0.0000000
 rotmap:
 (   1->   1)  (   2->   2)  (   3->   3)  (   4->   5)  (   5->   4) 


 irot  :  44
 --------------------------------------------------------------------
 isymop:   1   0   0
           0   0   1
           0   1   0

 gtrans:     0.0000000     0.0000000     0.0000000

 ptrans:     0.0000000     0.0000000     0.0000000
 rotmap:
 (   1->   1)  (   2->   2)  (   3->   3)  (   4->   5)  (   5->   4) 


 irot  :  45
 --------------------------------------------------------------------
 isymop:   0  -1   0
          -1   0   0
           0   0  -1

 gtrans:     0.0000000     0.0000000     0.0000000

 ptrans:     0.0000000     0.0000000     0.0000000
 rotmap:
 (   1->   1)  (   2->   2)  (   3->   4)  (   4->   3)  (   5->   5) 


 irot  :  46
 --------------------------------------------------------------------
 isymop:   0   1   0
           1   0   0
           0   0   1

 gtrans:     0.0000000     0.0000000     0.0000000

 ptrans:     0.0000000     0.0000000     0.0000000
 rotmap:
 (   1->   1)  (   2->   2)  (   3->   4)  (   4->   3)  (   5->   5) 


 irot  :  47
 --------------------------------------------------------------------
 isymop:   0   0  -1
           0  -1   0
          -1   0   0

 gtrans:     0.0000000     0.0000000     0.0000000

 ptrans:     0.0000000     0.0000000     0.0000000
 rotmap:
 (   1->   1)  (   2->   2)  (   3->   5)  (   4->   4)  (   5->   3) 


 irot  :  48
 --------------------------------------------------------------------
 isymop:   0   0   1
           0   1   0
           1   0   0

 gtrans:     0.0000000     0.0000000     0.0000000

 ptrans:     0.0000000     0.0000000     0.0000000
 rotmap:
 (   1->   1)  (   2->   2)  (   3->   5)  (   4->   4)  (   5->   3) 
 
 
 KPOINTS: Automatic mesh                          

Automatic generation of k-mesh.
Space group operators:
 irot       det(A)        alpha          n_x          n_y          n_z        tau_x        tau_y        tau_z
    1     1.000000     0.000000     1.000000     0.000000     0.000000     0.000000     0.000000     0.000000
    2    -1.000000     0.000000     1.000000     0.000000     0.000000     0.000000     0.000000     0.000000
    3     1.000000   120.000000    -0.577350    -0.577350    -0.577350     0.000000     0.000000     0.000000
    4    -1.000000   120.000000    -0.577350    -0.577350    -0.577350     0.000000     0.000000     0.000000
    5     1.000000   120.000000     0.577350     0.577350     0.577350     0.000000     0.000000     0.000000
    6    -1.000000   120.000000     0.577350     0.577350     0.577350     0.000000     0.000000     0.000000
    7     1.000000    90.000000     0.000000     0.000000    -1.000000     0.000000     0.000000     0.000000
    8    -1.000000    90.000000     0.000000     0.000000    -1.000000     0.000000     0.000000     0.000000
    9     1.000000   180.000000     0.000000    -0.707107    -0.707107     0.000000     0.000000     0.000000
   10    -1.000000   180.000000     0.000000    -0.707107    -0.707107     0.000000     0.000000     0.000000
   11     1.000000    90.000000     0.000000     1.000000     0.000000     0.000000     0.000000     0.000000
   12    -1.000000    90.000000     0.000000     1.000000     0.000000     0.000000     0.000000     0.000000
   13     1.000000   180.000000    -0.000000    -0.000000     1.000000     0.000000     0.000000     0.000000
   14    -1.000000   180.000000    -0.000000    -0.000000     1.000000     0.000000     0.000000     0.000000
   15     1.000000   120.000000    -0.577350     0.577350     0.577350     0.000000     0.000000     0.000000
   16    -1.000000   120.000000    -0.577350     0.577350     0.577350     0.000000     0.000000     0.000000
   17     1.000000   120.000000    -0.577350     0.577350    -0.577350     0.000000     0.000000     0.000000
   18    -1.000000   120.000000    -0.577350     0.577350    -0.577350     0.000000     0.000000     0.000000
   19     1.000000    90.000000    -0.000000    -0.000000     1.000000     0.000000     0.000000     0.000000
   20    -1.000000    90.000000    -0.000000    -0.000000     1.000000     0.000000     0.000000     0.000000
   21     1.000000    90.000000    -1.000000     0.000000    -0.000000     0.000000     0.000000     0.000000
   22    -1.000000    90.000000    -1.000000     0.000000    -0.000000     0.000000     0.000000     0.000000
   23     1.000000   180.000000    -0.707107     0.000000    -0.707107     0.000000     0.000000     0.000000
   24    -1.000000   180.000000    -0.707107     0.000000    -0.707107     0.000000     0.000000     0.000000
   25     1.000000   120.000000     0.577350    -0.577350     0.577350     0.000000     0.000000     0.000000
   26    -1.000000   120.000000     0.577350    -0.577350     0.577350     0.000000     0.000000     0.000000
   27     1.000000   120.000000    -0.577350    -0.577350     0.577350     0.000000     0.000000     0.000000
   28    -1.000000   120.000000    -0.577350    -0.577350     0.577350     0.000000     0.000000     0.000000
   29     1.000000   180.000000     1.000000    -0.000000     0.000000     0.000000     0.000000     0.000000
   30    -1.000000   180.000000     1.000000    -0.000000     0.000000     0.000000     0.000000     0.000000
   31     1.000000    90.000000    -0.000000    -1.000000     0.000000     0.000000     0.000000     0.000000
   32    -1.000000    90.000000    -0.000000    -1.000000     0.000000     0.000000     0.000000     0.000000
   33     1.000000   180.000000     0.707107     0.707107     0.000000     0.000000     0.000000     0.000000
   34    -1.000000   180.000000     0.707107     0.707107     0.000000     0.000000     0.000000     0.000000
   35     1.000000    90.000000     1.000000    -0.000000    -0.000000     0.000000     0.000000     0.000000
   36    -1.000000    90.000000     1.000000    -0.000000    -0.000000     0.000000     0.000000     0.000000
   37     1.000000   120.000000     0.577350    -0.577350    -0.577350     0.000000     0.000000     0.000000
   38    -1.000000   120.000000     0.577350    -0.577350    -0.577350     0.000000     0.000000     0.000000
   39     1.000000   180.000000     0.000000     1.000000     0.000000     0.000000     0.000000     0.000000
   40    -1.000000   180.000000     0.000000     1.000000     0.000000     0.000000     0.000000     0.000000
   41     1.000000   120.000000     0.577350     0.577350    -0.577350     0.000000     0.000000     0.000000
   42    -1.000000   120.000000     0.577350     0.577350    -0.577350     0.000000     0.000000     0.000000
   43     1.000000   180.000000    -0.000000    -0.707107     0.707107     0.000000     0.000000     0.000000
   44    -1.000000   180.000000    -0.000000    -0.707107     0.707107     0.000000     0.000000     0.000000
   45     1.000000   180.000000     0.707107    -0.707107     0.000000     0.000000     0.000000     0.000000
   46    -1.000000   180.000000     0.707107    -0.707107     0.000000     0.000000     0.000000     0.000000
   47     1.000000   180.000000     0.707107    -0.000000    -0.707107     0.000000     0.000000     0.000000
   48    -1.000000   180.000000     0.707107    -0.000000    -0.707107     0.000000     0.000000     0.000000
 
 Subroutine IBZKPT returns following result:
 ===========================================
 
 Found     35 irreducible k-points:
 
 Following reciprocal coordinates:
            Coordinates               Weight
  0.000000  0.000000  0.000000      1.000000
  0.125000  0.000000  0.000000      6.000000
  0.250000  0.000000  0.000000      6.000000
  0.375000  0.000000  0.000000      6.000000
  0.500000  0.000000  0.000000      3.000000
  0.125000  0.125000  0.000000     12.000000
  0.250000  0.125000  0.000000     24.000000
  0.375000  0.125000  0.000000     24.000000
  0.500000  0.125000  0.000000     12.000000
  0.250000  0.250000  0.000000     12.000000
  0.375000  0.250000  0.000000     24.000000
  0.500000  0.250000  0.000000     12.000000
  0.375000  0.375000  0.000000     12.000000
  0.500000  0.375000  0.000000     12.000000
  0.500000  0.500000  0.000000      3.000000
  0.125000  0.125000  0.125000      8.000000
  0.250000  0.125000  0.125000     24.000000
  0.375000  0.125000  0.125000     24.000000
  0.500000  0.125000  0.125000     12.000000
  0.250000  0.250000  0.125000     24.000000
  0.375000  0.250000  0.125000     48.000000
  0.500000  0.250000  0.125000     24.000000
  0.375000  0.375000  0.125000     24.000000
  0.500000  0.375000  0.125000     24.000000
  0.500000  0.500000  0.125000      6.000000
  0.250000  0.250000  0.250000      8.000000
  0.375000  0.250000  0.250000     24.000000
  0.500000  0.250000  0.250000     12.000000
  0.375000  0.375000  0.250000     24.000000
  0.500000  0.375000  0.250000     24.000000
  0.500000  0.500000  0.250000      6.000000
  0.375000  0.375000  0.375000      8.000000
  0.500000  0.375000  0.375000     12.000000
  0.500000  0.500000  0.375000      6.000000
  0.500000  0.500000  0.500000      1.000000
 
 Following cartesian coordinates:
            Coordinates               Weight
  0.000000  0.000000  0.000000      1.000000
  0.031190 -0.000000  0.000000      6.000000
  0.062380 -0.000000  0.000000      6.000000
  0.093570 -0.000000  0.000000      6.000000
  0.124760 -0.000000  0.000000      3.000000
  0.031190  0.031190  0.000000     12.000000
  0.062380  0.031190  0.000000     24.000000
  0.093570  0.031190  0.000000     24.000000
  0.124760  0.031190  0.000000     12.000000
  0.062380  0.062380  0.000000     12.000000
  0.093570  0.062380  0.000000     24.000000
  0.124760  0.062380  0.000000     12.000000
  0.093570  0.093570  0.000000     12.000000
  0.124760  0.093570  0.000000     12.000000
  0.124760  0.124760  0.000000      3.000000
  0.031190  0.031190  0.031190      8.000000
  0.062380  0.031190  0.031190     24.000000
  0.093570  0.031190  0.031190     24.000000
  0.124760  0.031190  0.031190     12.000000
  0.062380  0.062380  0.031190     24.000000
  0.093570  0.062380  0.031190     48.000000
  0.124760  0.062380  0.031190     24.000000
  0.093570  0.093570  0.031190     24.000000
  0.124760  0.093570  0.031190     24.000000
  0.124760  0.124760  0.031190      6.000000
  0.062380  0.062380  0.062380      8.000000
  0.093570  0.062380  0.062380     24.000000
  0.124760  0.062380  0.062380     12.000000
  0.093570  0.093570  0.062380     24.000000
  0.124760  0.093570  0.062380     24.000000
  0.124760  0.124760  0.062380      6.000000
  0.093570  0.093570  0.093570      8.000000
  0.124760  0.093570  0.093570     12.000000
  0.124760  0.124760  0.093570      6.000000
  0.124760  0.124760  0.124760      1.000000
 


--------------------------------------------------------------------------------------------------------




 Dimension of arrays:
   k-points           NKPTS =     35   k-points in BZ     NKDIM =     35   number of bands    NBANDS=     32
   number of dos      NEDOS =    301   number of ions     NIONS =      5
   non local maximal  LDIM  =      8   non local SUM 2l+1 LMDIM =     32
   total plane-waves  NPLWV =  27000
   max r-space proj   IRMAX =      1   max aug-charges    IRDMAX=  29166
   dimension x,y,z NGX =    30 NGY =   30 NGZ =   30
   dimension x,y,z NGXF=    60 NGYF=   60 NGZF=   60
   support grid    NGXF=    60 NGYF=   60 NGZF=   60
   ions per type =               1   1   3
 NGX,Y,Z   is equivalent  to a cutoff of  12.44, 12.44, 12.44 a.u.
 NGXF,Y,Z  is equivalent  to a cutoff of  24.89, 24.89, 24.89 a.u.


 I would recommend the setting:
   dimension x,y,z NGX =    29 NGY =   29 NGZ =   29
 SYSTEM =  Perovskite (relax)                      
 POSCAR =  Ba1 Ti1 O3                              

 Startparameter for this run:
   NWRITE =      2    write-flag & timer
   PREC   = accura    normal or accurate (medium, high low for compatibility)
   ISTART =      0    job   : 0-new  1-cont  2-samecut
   ICHARG =      2    charge: 1-file 2-atom 10-const
   ISPIN  =      2    spin polarized calculation?
   LNONCOLLINEAR =      F non collinear calculations
   LSORBIT =      F    spin-orbit coupling
   INIWAV =      1    electr: 0-lowe 1-rand  2-diag
   LASPH  =      T    aspherical Exc in radial PAW
   METAGGA=      F    non-selfconsistent MetaGGA calc.

 Electronic Relaxation 1
   ENCUT  =  500.0 eV  36.75 Ry    6.06 a.u.   7.31  7.31  7.31*2*pi/ulx,y,z
   ENINI  =  500.0     initial cutoff
   ENAUG  =  605.4 eV  augmentation charge cutoff
   NELM   =    100;   NELMIN=  2; NELMDL= -5     # of ELM steps 
   EDIFF  = 0.1E-04   stopping-criterion for ELM
   LREAL  =      F    real-space projection
   NLSPLINE    = F    spline interpolate recip. space projectors
   LCOMPAT=      F    compatible to vasp.4.4
   GGA_COMPAT  = T    GGA compatible to vasp.4.4-vasp.4.6
   LMAXPAW     = -100 max onsite density
   LMAXMIX     =    2 max onsite mixed and CHGCAR
   VOSKOWN=      0    Vosko Wilk Nusair interpolation
   ROPT   =    0.00000   0.00000   0.00000
 Ionic relaxation
   EDIFFG = -.1E-01   stopping-criterion for IOM
   NSW    =    200    number of steps for IOM
   NBLOCK =      1;   KBLOCK =    200    inner block; outer block 
   IBRION =      2    ionic relax: 0-MD 1-quasi-New 2-CG
   NFREE  =      1    steps in history (QN), initial steepest desc. (CG)
   ISIF   =      3    stress and relaxation
   IWAVPR =     11    prediction:  0-non 1-charg 2-wave 3-comb
   ISYM   =      2    0-nonsym 1-usesym 2-fastsym
   LCORR  =      T    Harris-Foulkes like correction to forces

   POTIM  = 0.5000    time-step for ionic-motion
   TEIN   =    0.0    initial temperature
   TEBEG  =    0.0;   TEEND  =   0.0 temperature during run
   SMASS  =  -3.00    Nose mass-parameter (am)
   estimated Nose-frequenzy (Omega)   =  0.10E-29 period in steps =****** mass=  -0.367E-27a.u.
   SCALEE = 1.0000    scale energy and forces
   NPACO  =    256;   APACO  = 16.0  distance and # of slots for P.C.
   PSTRESS=    0.0 pullay stress

  Mass of Ions in am
   POMASS = 137.33 47.88 16.00
  Ionic Valenz
   ZVAL   =  10.00  4.00  6.00
  Atomic Wigner-Seitz radii
   RWIGS  =  -1.00 -1.00 -1.00
  virtual crystal weights 
   VCA    =   1.00  1.00  1.00
   NELECT =      32.0000    total number of electrons
   NUPDOWN=      -1.0000    fix difference up-down

 DOS related values:
   EMIN   =  10.00;   EMAX   =-10.00  energy-range for DOS
   EFERMI =   0.00
   ISMEAR =     0;   SIGMA  =   0.05  broadening in eV -4-tet -1-fermi 0-gaus

 Electronic relaxation 2 (details)
   IALGO  =     38    algorithm
   LDIAG  =      T    sub-space diagonalisation (order eigenvalues)
   LSUBROT=      T    optimize rotation matrix (better conditioning)
   TURBO    =      0    0=normal 1=particle mesh
   IRESTART =      0    0=no restart 2=restart with 2 vectors
   NREBOOT  =      0    no. of reboots
   NMIN     =      0    reboot dimension
   EREF     =   0.00    reference energy to select bands
   IMIX   =      4    mixing-type and parameters
     AMIX     =   0.40;   BMIX     =  1.00
     AMIX_MAG =   1.60;   BMIX_MAG =  1.00
     AMIN     =   0.10
     WC   =   100.;   INIMIX=   1;  MIXPRE=   1;  MAXMIX= -45

 Intra band minimization:
   WEIMIN = 0.0010     energy-eigenvalue tresh-hold
   EBREAK =  0.78E-07  absolut break condition
   DEPER  =   0.30     relativ break condition  

   TIME   =   0.40     timestep for ELM

  volume/ion in A,a.u.               =      12.87        86.88
  Fermi-wavevector in a.u.,A,eV,Ry     =   1.296875  2.450739 22.883448  1.681886
  Thomas-Fermi vector in A             =   2.428304
 
 Write flags
   LWAVE  =      T    write WAVECAR
   LCHARG =      T    write CHGCAR
   LVTOT  =      T    write LOCPOT, total local potential
   LVHAR  =      F    write LOCPOT, Hartree potential only
   LELF   =      T    write electronic localiz. function (ELF)
   LORBIT =     12    0 simple, 1 ext, 2 COOP (PROOUT)


 Dipole corrections
   LMONO  =      F    monopole corrections only (constant potential shift)
   LDIPOL =      F    correct potential (dipole corrections)
   IDIPOL =      0    1-x, 2-y, 3-z, 4-all directions 
   EPSILON=  1.0000000 bulk dielectric constant

 Exchange correlation treatment:
   GGA     =    --    GGA type
   LEXCH   =     8    internal setting for exchange type
   VOSKOWN=      0    Vosko Wilk Nusair interpolation
   LHFCALC =     F    Hartree Fock is set to
   LHFONE  =     F    Hartree Fock one center treatment
   AEXX    =    0.0000 exact exchange contribution

 Linear response parameters
   LEPSILON=     F    determine dielectric tensor
   LRPA    =     F    only Hartree local field effects (RPA)
   LNABLA  =     F    use nabla operator in PAW spheres
   LVEL    =     F    velocity operator in full k-point grid
   LINTERFAST=   F  fast interpolation
   KINTER  =     0    interpolate to denser k-point grid
   CSHIFT  =0.1000    complex shift for real part using Kramers Kronig
   OMEGAMAX=  -1.0    maximum frequency
   DEG_THRESHOLD= 0.2000000E-02 threshold for treating states as degnerate
   RTIME   =    0.100 relaxation time in fs

 Orbital magnetization related:
   ORBITALMAG=     F  switch on orbital magnetization
   LCHIMAG   =     F  perturbation theory with respect to B field
   DQ        =  0.001000  dq finite difference perturbation B field



--------------------------------------------------------------------------------------------------------


 conjugate gradient relaxation of ions
 charge density and potential will be updated during run
 spin polarized calculation
 Variant of blocked Davidson
 Davidson routine will perform the subspace rotation
 perform sub-space diagonalisation
    after iterative eigenvector-optimisation
 modified Broyden-mixing scheme, WC =      100.0
 initial mixing is a Kerker type mixing with AMIX =  0.4000 and BMIX =      1.0000
 Hartree-type preconditioning will be used
 using additional bands           16
 reciprocal scheme for non local part
 use partial core corrections
 calculate Harris-corrections to forces 
   (improved forces if not selfconsistent)
 use gradient corrections 
 use of overlap-Matrix (Vanderbilt PP)
 Gauss-broadening in eV      SIGMA  =   0.05


--------------------------------------------------------------------------------------------------------


  energy-cutoff  :      500.00
  volume of cell :       64.37
      direct lattice vectors                 reciprocal lattice vectors
     4.007681636  0.000000000  0.000000000     0.249520818 -0.000000000  0.000000000
     0.000000000  4.007681636  0.000000000     0.000000000  0.249520818  0.000000000
     0.000000000  0.000000000  4.007681636    -0.000000000 -0.000000000  0.249520818

  length of vectors
     4.007681636  4.007681636  4.007681636     0.249520818  0.249520818  0.249520818


 
 k-points in units of 2pi/SCALE and weight: Automatic mesh                          
   0.00000000  0.00000000  0.00000000       0.002
   0.03119010 -0.00000000  0.00000000       0.012
   0.06238020 -0.00000000  0.00000000       0.012
   0.09357031 -0.00000000  0.00000000       0.012
   0.12476041 -0.00000000  0.00000000       0.006
   0.03119010  0.03119010  0.00000000       0.023
   0.06238020  0.03119010  0.00000000       0.047
   0.09357031  0.03119010  0.00000000       0.047
   0.12476041  0.03119010  0.00000000       0.023
   0.06238020  0.06238020  0.00000000       0.023
   0.09357031  0.06238020  0.00000000       0.047
   0.12476041  0.06238020  0.00000000       0.023
   0.09357031  0.09357031  0.00000000       0.023
   0.12476041  0.09357031  0.00000000       0.023
   0.12476041  0.12476041  0.00000000       0.006
   0.03119010  0.03119010  0.03119010       0.016
   0.06238020  0.03119010  0.03119010       0.047
   0.09357031  0.03119010  0.03119010       0.047
   0.12476041  0.03119010  0.03119010       0.023
   0.06238020  0.06238020  0.03119010       0.047
   0.09357031  0.06238020  0.03119010       0.094
   0.12476041  0.06238020  0.03119010       0.047
   0.09357031  0.09357031  0.03119010       0.047
   0.12476041  0.09357031  0.03119010       0.047
   0.12476041  0.12476041  0.03119010       0.012
   0.06238020  0.06238020  0.06238020       0.016
   0.09357031  0.06238020  0.06238020       0.047
   0.12476041  0.06238020  0.06238020       0.023
   0.09357031  0.09357031  0.06238020       0.047
   0.12476041  0.09357031  0.06238020       0.047
   0.12476041  0.12476041  0.06238020       0.012
   0.09357031  0.09357031  0.09357031       0.016
   0.12476041  0.09357031  0.09357031       0.023
   0.12476041  0.12476041  0.09357031       0.012
   0.12476041  0.12476041  0.12476041       0.002
 
 k-points in reciprocal lattice and weights: Automatic mesh                          
   0.00000000  0.00000000  0.00000000       0.002
   0.12500000  0.00000000  0.00000000       0.012
   0.25000000  0.00000000  0.00000000       0.012
   0.37500000  0.00000000  0.00000000       0.012
   0.50000000  0.00000000  0.00000000       0.006
   0.12500000  0.12500000  0.00000000       0.023
   0.25000000  0.12500000  0.00000000       0.047
   0.37500000  0.12500000  0.00000000       0.047
   0.50000000  0.12500000  0.00000000       0.023
   0.25000000  0.25000000  0.00000000       0.023
   0.37500000  0.25000000  0.00000000       0.047
   0.50000000  0.25000000  0.00000000       0.023
   0.37500000  0.37500000  0.00000000       0.023
   0.50000000  0.37500000  0.00000000       0.023
   0.50000000  0.50000000  0.00000000       0.006
   0.12500000  0.12500000  0.12500000       0.016
   0.25000000  0.12500000  0.12500000       0.047
   0.37500000  0.12500000  0.12500000       0.047
   0.50000000  0.12500000  0.12500000       0.023
   0.25000000  0.25000000  0.12500000       0.047
   0.37500000  0.25000000  0.12500000       0.094
   0.50000000  0.25000000  0.12500000       0.047
   0.37500000  0.37500000  0.12500000       0.047
   0.50000000  0.37500000  0.12500000       0.047
   0.50000000  0.50000000  0.12500000       0.012
   0.25000000  0.25000000  0.25000000       0.016
   0.37500000  0.25000000  0.25000000       0.047
   0.50000000  0.25000000  0.25000000       0.023
   0.37500000  0.37500000  0.25000000       0.047
   0.50000000  0.37500000  0.25000000       0.047
   0.50000000  0.50000000  0.25000000       0.012
   0.37500000  0.37500000  0.37500000       0.016
   0.50000000  0.37500000  0.37500000       0.023
   0.50000000  0.50000000  0.37500000       0.012
   0.50000000  0.50000000  0.50000000       0.002
 
 position of ions in fractional coordinates (direct lattice) 
   0.50000000  0.50000000  0.50000000
   0.00000000  0.00000000  0.00000000
   0.50000000  0.00000000  0.00000000
   0.00000000  0.50000000  0.00000000
   0.00000000  0.00000000  0.50000000
 
 position of ions in cartesian coordinates  (Angst):
   2.00384082  2.00384082  2.00384082
   0.00000000  0.00000000  0.00000000
   2.00384082  0.00000000  0.00000000
   0.00000000  2.00384082  0.00000000
   0.00000000  0.00000000  2.00384082
 


--------------------------------------------------------------------------------------------------------


 k-point  1 :   0.0000 0.0000 0.0000  plane waves:    1647
 k-point  2 :   0.1250 0.0000 0.0000  plane waves:    1647
 k-point  3 :   0.2500 0.0000 0.0000  plane waves:    1639
 k-point  4 :   0.3750 0.0000 0.0000  plane waves:    1646
 k-point  5 :   0.5000 0.0000 0.0000  plane waves:    1654
 k-point  6 :   0.1250 0.1250 0.0000  plane waves:    1643
 k-point  7 :   0.2500 0.1250 0.0000  plane waves:    1638
 k-point  8 :   0.3750 0.1250 0.0000  plane waves:    1632
 k-point  9 :   0.5000 0.1250 0.0000  plane waves:    1634
 k-point 10 :   0.2500 0.2500 0.0000  plane waves:    1628
 k-point 11 :   0.3750 0.2500 0.0000  plane waves:    1631
 k-point 12 :   0.5000 0.2500 0.0000  plane waves:    1634
 k-point 13 :   0.3750 0.3750 0.0000  plane waves:    1632
 k-point 14 :   0.5000 0.3750 0.0000  plane waves:    1642
 k-point 15 :   0.5000 0.5000 0.0000  plane waves:    1628
 k-point 16 :   0.1250 0.1250 0.1250  plane waves:    1653
 k-point 17 :   0.2500 0.1250 0.1250  plane waves:    1646
 k-point 18 :   0.3750 0.1250 0.1250  plane waves:    1622
 k-point 19 :   0.5000 0.1250 0.1250  plane waves:    1626
 k-point 20 :   0.2500 0.2500 0.1250  plane waves:    1636
 k-point 21 :   0.3750 0.2500 0.1250  plane waves:    1626
 k-point 22 :   0.5000 0.2500 0.1250  plane waves:    1628
 k-point 23 :   0.3750 0.3750 0.1250  plane waves:    1637
 k-point 24 :   0.5000 0.3750 0.1250  plane waves:    1632
 k-point 25 :   0.5000 0.5000 0.1250  plane waves:    1640
 k-point 26 :   0.2500 0.2500 0.2500  plane waves:    1637
 k-point 27 :   0.3750 0.2500 0.2500  plane waves:    1635
 k-point 28 :   0.5000 0.2500 0.2500  plane waves:    1666
 k-point 29 :   0.3750 0.3750 0.2500  plane waves:    1638
 k-point 30 :   0.5000 0.3750 0.2500  plane waves:    1632
 k-point 31 :   0.5000 0.5000 0.2500  plane waves:    1624
 k-point 32 :   0.3750 0.3750 0.3750  plane waves:    1622
 k-point 33 :   0.5000 0.3750 0.3750  plane waves:    1636
 k-point 34 :   0.5000 0.5000 0.3750  plane waves:    1628
 k-point 35 :   0.5000 0.5000 0.5000  plane waves:    1640

 maximum and minimum number of plane-waves per node :      1666     1622

 maximum number of plane-waves:      1666
 maximum index in each direction: 
   IXMAX=    7   IYMAX=    7   IZMAX=    7
   IXMIN=   -7   IYMIN=   -7   IZMIN=   -7

 NGX is ok and might be reduce to  30
 NGY is ok and might be reduce to  30
 NGZ is ok and might be reduce to  30

 serial   3D FFT for wavefunctions
 parallel 3D FFT for charge:
    minimum data exchange during FFTs selected (reduces bandwidth)


 total amount of memory used by VASP on root node    81426. kBytes
========================================================================

   base      :      30000. kBytes
   nonl-proj :      45724. kBytes
   fftplans  :        365. kBytes
   grid      :       2839. kBytes
   one-center:        491. kBytes
   wavefun   :       2007. kBytes
 
 Broyden mixing: mesh for mixing (old mesh)
   NGX = 15   NGY = 15   NGZ = 15
  (NGX  = 60   NGY  = 60   NGZ  = 60)
  gives a total of   3375 points

 initial charge density was supplied:
 charge density of overlapping atoms calculated
 number of electron      32.0000000 magnetization       5.0000000
 keeping initial charge density in first step


--------------------------------------------------------------------------------------------------------


 Maximum index for augmentation-charges         1109 (set IRDMAX)


--------------------------------------------------------------------------------------------------------


 First call to EWALD:  gamma=   0.442
 Maximum number of real-space cells 3x 3x 3
 Maximum number of reciprocal cells 3x 3x 3

 FEWALD executed in parallel
    FEWALD:  cpu time    0.00: real time    0.00


----------------------------------------- Iteration    1(   1)  ---------------------------------------


    POTLOK:  cpu time    0.03: real time    0.03
    SETDIJ:  cpu time    1.11: real time    1.11
     EDDAV:  cpu time    1.38: real time    1.38
       DOS:  cpu time    0.00: real time    0.00
    --------------------------------------------
      LOOP:  cpu time    2.52: real time    2.52

 eigenvalue-minimisations  :  4480
 total energy-change (2. order) : 0.1448990E+03  (-0.1646075E+04)
 number of electron      32.0000000 magnetization       5.0000000
 augmentation part       32.0000000 magnetization       5.0000000

 Free energy of the ion-electron system (eV)
  ---------------------------------------------------
  alpha Z        PSCENC =       156.49721995
  Ewald energy   TEWEN  =     -1884.65392046
  -1/2 Hartree   DENC   =      -349.97780500
  -exchange  EXHF       =         0.00000000
  -V(xc)+E(xc)   XCENC  =       -14.59820793
  PAW double counting   =      1782.40361899    -1660.80875785
  entropy T*S    EENTRO =        -0.00240280
  eigenvalues    EBANDS =        26.21556197
  atomic energy  EATOM  =      2089.82372321
  ---------------------------------------------------
  free energy    TOTEN  =       144.89903007 eV

  energy without entropy =      144.90143287  energy(sigma->0) =      144.90023147


--------------------------------------------------------------------------------------------------------




----------------------------------------- Iteration    1(   2)  ---------------------------------------


     EDDAV:  cpu time    1.92: real time    1.92
       DOS:  cpu time    0.00: real time    0.00
    --------------------------------------------
      LOOP:  cpu time    1.92: real time    1.93

 eigenvalue-minimisations  :  6112
 total energy-change (2. order) :-0.1946644E+03  (-0.1906852E+03)
 number of electron      32.0000000 magnetization       5.0000000
 augmentation part       32.0000000 magnetization       5.0000000

 Free energy of the ion-electron system (eV)
  ---------------------------------------------------
  alpha Z        PSCENC =       156.49721995
  Ewald energy   TEWEN  =     -1884.65392046
  -1/2 Hartree   DENC   =      -349.97780500
  -exchange  EXHF       =         0.00000000
  -V(xc)+E(xc)   XCENC  =       -14.59820793
  PAW double counting   =      1782.40361899    -1660.80875785
  entropy T*S    EENTRO =        -0.00000000
  eigenvalues    EBANDS =      -168.45124877
  atomic energy  EATOM  =      2089.82372321
  ---------------------------------------------------
  free energy    TOTEN  =       -49.76537788 eV

  energy without entropy =      -49.76537788  energy(sigma->0) =      -49.76537788


--------------------------------------------------------------------------------------------------------




----------------------------------------- Iteration    1(   3)  ---------------------------------------


     EDDAV:  cpu time    1.53: real time    1.53
       DOS:  cpu time    0.00: real time    0.00
    --------------------------------------------
      LOOP:  cpu time    1.53: real time    1.54

 eigenvalue-minimisations  :  4896
 total energy-change (2. order) :-0.3417955E+01  (-0.3417955E+01)
 number of electron      32.0000000 magnetization       5.0000000
 augmentation part       32.0000000 magnetization       5.0000000

 Free energy of the ion-electron system (eV)
  ---------------------------------------------------
  alpha Z        PSCENC =       156.49721995
  Ewald energy   TEWEN  =     -1884.65392046
  -1/2 Hartree   DENC   =      -349.97780500
  -exchange  EXHF       =         0.00000000
  -V(xc)+E(xc)   XCENC  =       -14.59820793
  PAW double counting   =      1782.40361899    -1660.80875785
  entropy T*S    EENTRO =        -0.00000000
  eigenvalues    EBANDS =      -171.86920327
  atomic energy  EATOM  =      2089.82372321
  ---------------------------------------------------
  free energy    TOTEN  =       -53.18333238 eV

  energy without entropy =      -53.18333238  energy(sigma->0) =      -53.18333238


--------------------------------------------------------------------------------------------------------




----------------------------------------- Iteration    1(   4)  ---------------------------------------


     EDDAV:  cpu time    2.82: real time    2.82
       DOS:  cpu time    0.00: real time    0.00
    --------------------------------------------
      LOOP:  cpu time    2.82: real time    2.95

 eigenvalue-minimisations  :  8128
 total energy-change (2. order) :-0.3399584E-01  (-0.3399584E-01)
 number of electron      32.0000000 magnetization       5.0000000
 augmentation part       32.0000000 magnetization       5.0000000

 Free energy of the ion-electron system (eV)
  ---------------------------------------------------
  alpha Z        PSCENC =       156.49721995
  Ewald energy   TEWEN  =     -1884.65392046
  -1/2 Hartree   DENC   =      -349.97780500
  -exchange  EXHF       =         0.00000000
  -V(xc)+E(xc)   XCENC  =       -14.59820793
  PAW double counting   =      1782.40361899    -1660.80875785
  entropy T*S    EENTRO =        -0.00000000
  eigenvalues    EBANDS =      -171.90319911
  atomic energy  EATOM  =      2089.82372321
  ---------------------------------------------------
  free energy    TOTEN  =       -53.21732822 eV

  energy without entropy =      -53.21732822  energy(sigma->0) =      -53.21732822


--------------------------------------------------------------------------------------------------------




----------------------------------------- Iteration    1(   5)  ---------------------------------------


     EDDAV:  cpu time    1.62: real time    1.62
       DOS:  cpu time    0.00: real time    0.00
    CHARGE:  cpu time    0.07: real time    0.07
    MIXING:  cpu time    0.00: real time    0.00
    --------------------------------------------
      LOOP:  cpu time    1.70: real time    1.77

 eigenvalue-minimisations  :  5056
 total energy-change (2. order) :-0.2328952E-04  (-0.2328952E-04)
 number of electron      31.9999973 magnetization      -0.6864916
 augmentation part        1.2997892 magnetization      -0.6398836

 Broyden mixing:
  rms(total) = 0.33729E+01    rms(broyden)= 0.33727E+01
  rms(prec ) = 0.57105E+01
  weight for this iteration     100.00

 Free energy of the ion-electron system (eV)
  ---------------------------------------------------
  alpha Z        PSCENC =       156.49721995
  Ewald energy   TEWEN  =     -1884.65392046
  -1/2 Hartree   DENC   =      -349.97780500
  -exchange  EXHF       =         0.00000000
  -V(xc)+E(xc)   XCENC  =       -14.59820793
  PAW double counting   =      1782.40361899    -1660.80875785
  entropy T*S    EENTRO =        -0.00000000
  eigenvalues    EBANDS =      -171.90322240
  atomic energy  EATOM  =      2089.82372321
  ---------------------------------------------------
  free energy    TOTEN  =       -53.21735151 eV

  energy without entropy =      -53.21735151  energy(sigma->0) =      -53.21735151


--------------------------------------------------------------------------------------------------------




----------------------------------------- Iteration    1(   6)  ---------------------------------------


    POTLOK:  cpu time    0.02: real time    0.02
    SETDIJ:  cpu time    1.11: real time    1.11
     EDDAV:  cpu time    1.51: real time    1.51
       DOS:  cpu time    0.00: real time    0.00
    CHARGE:  cpu time    0.07: real time    0.07
    MIXING:  cpu time    0.00: real time    0.00
    --------------------------------------------
      LOOP:  cpu time    2.72: real time    2.77

 eigenvalue-minimisations  :  4896
 total energy-change (2. order) : 0.9366917E+01  (-0.1085329E+02)
 number of electron      31.9999981 magnetization      -0.1140897
 augmentation part        1.4872137 magnetization      -0.1005235

 Broyden mixing:
  rms(total) = 0.20257E+01    rms(broyden)= 0.20254E+01
  rms(prec ) = 0.27892E+01
  weight for this iteration     100.00

 eigenvalues of (default mixing * dielectric matrix)
  average eigenvalue GAMMA=   0.7486
  0.7486

 Free energy of the ion-electron system (eV)
  ---------------------------------------------------
  alpha Z        PSCENC =       156.49721995
  Ewald energy   TEWEN  =     -1884.65392046
  -1/2 Hartree   DENC   =      -414.10935868
  -exchange  EXHF       =         0.00000000
  -V(xc)+E(xc)   XCENC  =       -10.04152578
  PAW double counting   =      2143.73720225    -2022.41655242
  entropy T*S    EENTRO =        -0.00052396
  eigenvalues    EBANDS =      -102.68669903
  atomic energy  EATOM  =      2089.82372321
  ---------------------------------------------------
  free energy    TOTEN  =       -43.85043494 eV

  energy without entropy =      -43.84991097  energy(sigma->0) =      -43.85017295


--------------------------------------------------------------------------------------------------------




----------------------------------------- Iteration    1(   7)  ---------------------------------------


    POTLOK:  cpu time    0.01: real time    0.01
    SETDIJ:  cpu time    1.11: real time    1.11
     EDDAV:  cpu time    1.57: real time    1.57
       DOS:  cpu time    0.00: real time    0.00
    CHARGE:  cpu time    0.07: real time    0.07
    MIXING:  cpu time    0.00: real time    0.00
    --------------------------------------------
      LOOP:  cpu time    2.77: real time    2.79

 eigenvalue-minimisations  :  5056
 total energy-change (2. order) : 0.7731126E+00  (-0.2258042E+01)
 number of electron      31.9999978 magnetization       0.1393806
 augmentation part        1.1171143 magnetization       0.1382489

 Broyden mixing:
  rms(total) = 0.16221E+01    rms(broyden)= 0.16221E+01
  rms(prec ) = 0.19309E+01
  weight for this iteration     100.00

 eigenvalues of (default mixing * dielectric matrix)
  average eigenvalue GAMMA=   0.8771
  1.1893  0.5649

 Free energy of the ion-electron system (eV)
  ---------------------------------------------------
  alpha Z        PSCENC =       156.49721995
  Ewald energy   TEWEN  =     -1884.65392046
  -1/2 Hartree   DENC   =      -393.67960516
  -exchange  EXHF       =         0.00000000
  -V(xc)+E(xc)   XCENC  =       -11.78971910
  PAW double counting   =      2266.04454605    -2144.75778970
  entropy T*S    EENTRO =        -0.00000000
  eigenvalues    EBANDS =      -120.56177708
  atomic energy  EATOM  =      2089.82372321
  ---------------------------------------------------
  free energy    TOTEN  =       -43.07732229 eV

  energy without entropy =      -43.07732229  energy(sigma->0) =      -43.07732229


--------------------------------------------------------------------------------------------------------




----------------------------------------- Iteration    1(   8)  ---------------------------------------


    POTLOK:  cpu time    0.01: real time    0.01
    SETDIJ:  cpu time    1.11: real time    1.11
     EDDAV:  cpu time    1.37: real time    1.37
       DOS:  cpu time    0.00: real time    0.00
    CHARGE:  cpu time    0.07: real time    0.07
    MIXING:  cpu time    0.00: real time    0.00
    --------------------------------------------
      LOOP:  cpu time    2.57: real time    2.58

 eigenvalue-minimisations  :  4608
 total energy-change (2. order) : 0.4280866E+00  (-0.3938438E+00)
 number of electron      31.9999979 magnetization      -0.0564261
 augmentation part        1.3116979 magnetization      -0.0533301

 Broyden mixing:
  rms(total) = 0.74417E+00    rms(broyden)= 0.74416E+00
  rms(prec ) = 0.79997E+00
  weight for this iteration     100.00

 eigenvalues of (default mixing * dielectric matrix)
  average eigenvalue GAMMA=   1.2788
  2.3459  0.9461  0.5444

 Free energy of the ion-electron system (eV)
  ---------------------------------------------------
  alpha Z        PSCENC =       156.49721995
  Ewald energy   TEWEN  =     -1884.65392046
  -1/2 Hartree   DENC   =      -397.79831669
  -exchange  EXHF       =         0.00000000
  -V(xc)+E(xc)   XCENC  =       -11.35271772
  PAW double counting   =      2512.68873811    -2391.13564377
  entropy T*S    EENTRO =        -0.00000000
  eigenvalues    EBANDS =      -116.71831834
  atomic energy  EATOM  =      2089.82372321
  ---------------------------------------------------
  free energy    TOTEN  =       -42.64923571 eV

  energy without entropy =      -42.64923571  energy(sigma->0) =      -42.64923571


--------------------------------------------------------------------------------------------------------




----------------------------------------- Iteration    1(   9)  ---------------------------------------


    POTLOK:  cpu time    0.01: real time    0.01
    SETDIJ:  cpu time    1.11: real time    1.11
     EDDAV:  cpu time    2.67: real time    2.67
       DOS:  cpu time    0.00: real time    0.00
    CHARGE:  cpu time    0.07: real time    0.07
    MIXING:  cpu time    0.00: real time    0.00
    --------------------------------------------
      LOOP:  cpu time    3.87: real time    3.88

 eigenvalue-minimisations  :  7904
 total energy-change (2. order) : 0.3499695E-01  (-0.1345519E-01)
 number of electron      31.9999979 magnetization       0.0261085
 augmentation part        1.3029690 magnetization       0.0205914

 Broyden mixing:
  rms(total) = 0.24552E+00    rms(broyden)= 0.24552E+00
  rms(prec ) = 0.26947E+00
  weight for this iteration     100.00

 eigenvalues of (default mixing * dielectric matrix)
  average eigenvalue GAMMA=   1.3100
  2.7199  1.1080  0.8641  0.5481

 Free energy of the ion-electron system (eV)
  ---------------------------------------------------
  alpha Z        PSCENC =       156.49721995
  Ewald energy   TEWEN  =     -1884.65392046
  -1/2 Hartree   DENC   =      -396.49132064
  -exchange  EXHF       =         0.00000000
  -V(xc)+E(xc)   XCENC  =       -11.47300762
  PAW double counting   =      2715.68952280    -2594.14836805
  entropy T*S    EENTRO =        -0.00000000
  eigenvalues    EBANDS =      -117.85808796
  atomic energy  EATOM  =      2089.82372321
  ---------------------------------------------------
  free energy    TOTEN  =       -42.61423877 eV

  energy without entropy =      -42.61423877  energy(sigma->0) =      -42.61423877


--------------------------------------------------------------------------------------------------------




----------------------------------------- Iteration    1(  10)  ---------------------------------------


    POTLOK:  cpu time    0.01: real time    0.01
    SETDIJ:  cpu time    1.11: real time    1.11
     EDDAV:  cpu time    1.51: real time    1.51
       DOS:  cpu time    0.00: real time    0.00
    CHARGE:  cpu time    0.07: real time    0.07
    MIXING:  cpu time    0.00: real time    0.00
    --------------------------------------------
      LOOP:  cpu time    2.71: real time    2.73

 eigenvalue-minimisations  :  4928
 total energy-change (2. order) : 0.2276531E-02  (-0.2845988E-02)
 number of electron      31.9999979 magnetization       0.0108061
 augmentation part        1.2844989 magnetization       0.0117478

 Broyden mixing:
  rms(total) = 0.11472E+00    rms(broyden)= 0.11472E+00
  rms(prec ) = 0.12146E+00
  weight for this iteration     100.00

 eigenvalues of (default mixing * dielectric matrix)
  average eigenvalue GAMMA=   1.2168
  2.8116  1.2386  0.9105  0.6113  0.5123

 Free energy of the ion-electron system (eV)
  ---------------------------------------------------
  alpha Z        PSCENC =       156.49721995
  Ewald energy   TEWEN  =     -1884.65392046
  -1/2 Hartree   DENC   =      -397.07821675
  -exchange  EXHF       =         0.00000000
  -V(xc)+E(xc)   XCENC  =       -11.46104776
  PAW double counting   =      2759.48816151    -2638.00864549
  entropy T*S    EENTRO =        -0.00000000
  eigenvalues    EBANDS =      -117.21923644
  atomic energy  EATOM  =      2089.82372321
  ---------------------------------------------------
  free energy    TOTEN  =       -42.61196224 eV

  energy without entropy =      -42.61196224  energy(sigma->0) =      -42.61196224


--------------------------------------------------------------------------------------------------------




----------------------------------------- Iteration    1(  11)  ---------------------------------------


    POTLOK:  cpu time    0.01: real time    0.01
    SETDIJ:  cpu time    1.11: real time    1.11
     EDDAV:  cpu time    2.50: real time    2.50
       DOS:  cpu time    0.00: real time    0.00
    CHARGE:  cpu time    0.09: real time    0.09
    MIXING:  cpu time    0.00: real time    0.00
    --------------------------------------------
      LOOP:  cpu time    3.72: real time    3.73

 eigenvalue-minimisations  :  7424
 total energy-change (2. order) : 0.3215991E-03  (-0.2634150E-03)
 number of electron      31.9999979 magnetization      -0.0033581
 augmentation part        1.2793979 magnetization      -0.0027157

 Broyden mixing:
  rms(total) = 0.73006E-01    rms(broyden)= 0.73006E-01
  rms(prec ) = 0.75563E-01
  weight for this iteration     100.00

 eigenvalues of (default mixing * dielectric matrix)
  average eigenvalue GAMMA=   1.1746
  2.7743  1.5480  0.8406  0.8406  0.5579  0.4861

 Free energy of the ion-electron system (eV)
  ---------------------------------------------------
  alpha Z        PSCENC =       156.49721995
  Ewald energy   TEWEN  =     -1884.65392046
  -1/2 Hartree   DENC   =      -397.30288239
  -exchange  EXHF       =         0.00000000
  -V(xc)+E(xc)   XCENC  =       -11.45188172
  PAW double counting   =      2754.10363451    -2632.64137623
  entropy T*S    EENTRO =        -0.00000000
  eigenvalues    EBANDS =      -116.98615749
  atomic energy  EATOM  =      2089.82372321
  ---------------------------------------------------
  free energy    TOTEN  =       -42.61164064 eV

  energy without entropy =      -42.61164064  energy(sigma->0) =      -42.61164064


--------------------------------------------------------------------------------------------------------




----------------------------------------- Iteration    1(  12)  ---------------------------------------


    POTLOK:  cpu time    0.01: real time    0.01
    SETDIJ:  cpu time    1.11: real time    1.11
     EDDAV:  cpu time    2.06: real time    2.06
       DOS:  cpu time    0.00: real time    0.00
    CHARGE:  cpu time    0.07: real time    0.07
    MIXING:  cpu time    0.00: real time    0.00
    --------------------------------------------
      LOOP:  cpu time    3.26: real time    3.27

 eigenvalue-minimisations  :  6400
 total energy-change (2. order) : 0.1955011E-03  (-0.1677319E-03)
 number of electron      31.9999979 magnetization      -0.0035119
 augmentation part        1.2753445 magnetization      -0.0034142

 Broyden mixing:
  rms(total) = 0.26071E-01    rms(broyden)= 0.26071E-01
  rms(prec ) = 0.29180E-01
  weight for this iteration     100.00

 eigenvalues of (default mixing * dielectric matrix)
  average eigenvalue GAMMA=   1.2221
  2.9288  1.7015  1.3398  0.8632  0.6060  0.6060  0.5091

 Free energy of the ion-electron system (eV)
  ---------------------------------------------------
  alpha Z        PSCENC =       156.49721995
  Ewald energy   TEWEN  =     -1884.65392046
  -1/2 Hartree   DENC   =      -397.34996799
  -exchange  EXHF       =         0.00000000
  -V(xc)+E(xc)   XCENC  =       -11.45255245
  PAW double counting   =      2746.12191308    -2624.67039265
  entropy T*S    EENTRO =        -0.00000000
  eigenvalues    EBANDS =      -116.92746782
  atomic energy  EATOM  =      2089.82372321
  ---------------------------------------------------
  free energy    TOTEN  =       -42.61144514 eV

  energy without entropy =      -42.61144514  energy(sigma->0) =      -42.61144514


--------------------------------------------------------------------------------------------------------




----------------------------------------- Iteration    1(  13)  ---------------------------------------


    POTLOK:  cpu time    0.01: real time    0.01
    SETDIJ:  cpu time    1.11: real time    1.11
     EDDAV:  cpu time    2.41: real time    2.41
       DOS:  cpu time    0.00: real time    0.00
    CHARGE:  cpu time    0.07: real time    0.07
    MIXING:  cpu time    0.00: real time    0.00
    --------------------------------------------
      LOOP:  cpu time    3.61: real time    3.63

 eigenvalue-minimisations  :  7392
 total energy-change (2. order) : 0.4006578E-04  (-0.1510854E-03)
 number of electron      31.9999979 magnetization      -0.0005618
 augmentation part        1.2794366 magnetization      -0.0008133

 Broyden mixing:
  rms(total) = 0.11877E-01    rms(broyden)= 0.11876E-01
  rms(prec ) = 0.16285E-01
  weight for this iteration     100.00

 eigenvalues of (default mixing * dielectric matrix)
  average eigenvalue GAMMA=   1.2221
  2.6932  2.3163  1.3310  0.9408  0.8215  0.5876  0.5433  0.5433

 Free energy of the ion-electron system (eV)
  ---------------------------------------------------
  alpha Z        PSCENC =       156.49721995
  Ewald energy   TEWEN  =     -1884.65392046
  -1/2 Hartree   DENC   =      -397.45829944
  -exchange  EXHF       =         0.00000000
[...]
  0.000   0.000   0.000   0.000  -0.000   0.000   0.000  -0.000
  0.000   0.000  -0.000  -0.000  -0.000  -0.000  -0.000  -0.000
  0.000   0.000   0.000  -0.000   0.000   0.000  -0.000   0.000
  0.000   0.000   0.000  -0.000  -0.000  -0.000  -0.000  -0.000
  0.000   0.000   0.000  -0.000  -0.000   0.000  -0.000  -0.000
 -0.000   0.000   0.000   0.000  -0.000   0.000   0.000  -0.000
  0.000   0.000  -0.000   0.000  -0.000  -0.000   0.000  -0.000
  0.000   0.000   0.000  -0.000   0.000   0.000  -0.000   0.000
  0.000   0.000   0.001  -0.000   0.000   0.001  -0.000   0.000
  0.000   0.000  -0.000  -0.000  -0.000  -0.000  -0.000  -0.000
  0.000   0.000   0.001  -0.000   0.000   0.001  -0.000   0.000
 -0.000  -0.000   0.000  -0.002   0.000   0.000  -0.002   0.000
  0.000   0.000   0.000  -0.000   0.001   0.000  -0.000   0.001
  0.000   0.000   0.000  -0.000  -0.000   0.000  -0.000  -0.000
 -0.000  -0.000   0.000  -0.000  -0.001   0.000  -0.000  -0.001
  0.000   0.000   0.002  -0.000   0.000   0.001  -0.000   0.000
  0.000   0.000  -0.000  -0.000  -0.000  -0.000  -0.000  -0.000
  0.000   0.000   0.001  -0.000   0.000   0.001  -0.000   0.000
 -0.000  -0.000   0.000  -0.002   0.000   0.000  -0.002   0.000
  0.000   0.000   0.000  -0.000   0.001   0.000  -0.000   0.001
  0.000   0.000   0.000  -0.000  -0.000   0.000  -0.000  -0.000
 -0.000  -0.000   0.000  -0.000  -0.002   0.000  -0.000  -0.001
 pseudopotential strength for first ion, spin component:           2
 23.115  21.787  -0.000   0.000  -0.000  -0.000   0.000  -0.000
 21.787  20.536  -0.000   0.000  -0.000  -0.000   0.000  -0.000
 -0.000  -0.000  11.680   0.000   0.000  11.326   0.000   0.000
  0.000   0.000   0.000  11.680   0.000   0.000  11.326   0.000
 -0.000  -0.000   0.000   0.000  11.680   0.000   0.000  11.326
 -0.000  -0.000  11.326   0.000   0.000  10.983   0.000   0.000
  0.000   0.000   0.000  11.326   0.000   0.000  10.983   0.000
 -0.000  -0.000   0.000   0.000  11.326   0.000   0.000  10.983
  0.000   0.000  -0.000  -0.000  -0.000  -0.000  -0.000  -0.000
  0.000   0.000   0.000  -0.000  -0.000   0.000  -0.000  -0.000
  0.000   0.000   0.000   0.000  -0.000   0.000   0.000  -0.000
  0.000   0.000  -0.000  -0.000   0.000  -0.000  -0.000   0.000
  0.000   0.000   0.000  -0.000   0.000   0.000  -0.000   0.000
  0.000   0.000   0.000  -0.000  -0.000  -0.000  -0.000  -0.000
  0.000   0.000   0.000  -0.000  -0.000   0.000  -0.000  -0.000
 -0.000   0.000   0.000   0.000  -0.000   0.000   0.000  -0.000
  0.000   0.000  -0.000   0.000   0.000  -0.000   0.000   0.000
  0.000   0.000   0.000  -0.000   0.000   0.000  -0.000   0.000
  0.000   0.000   0.001  -0.000   0.000   0.001  -0.000   0.000
  0.000   0.000  -0.000  -0.000  -0.000  -0.000  -0.000  -0.000
  0.000   0.000   0.001  -0.000   0.000   0.001  -0.000   0.000
 -0.000  -0.000   0.000  -0.002   0.000   0.000  -0.002   0.000
  0.000   0.000   0.000  -0.000   0.001   0.000  -0.000   0.001
  0.000   0.000   0.000  -0.000  -0.000   0.000  -0.000  -0.000
 -0.000  -0.000   0.000  -0.000  -0.001   0.000  -0.000  -0.001
  0.000   0.000   0.002  -0.000   0.000   0.001  -0.000   0.000
  0.000   0.000  -0.000  -0.000  -0.000  -0.000  -0.000  -0.000
  0.000   0.000   0.001  -0.000   0.000   0.001  -0.000   0.000
 -0.000  -0.000   0.000  -0.002   0.000   0.000  -0.002   0.000
  0.000   0.000   0.000  -0.000   0.001   0.000  -0.000   0.001
  0.000   0.000   0.000  -0.000  -0.000   0.000  -0.000  -0.000
 -0.000  -0.000   0.000  -0.000  -0.002   0.000  -0.000  -0.001
 total augmentation occupancy for first ion, spin component:           1
 24.266 -24.691   0.000   0.000   0.000   0.000   0.000   0.000   0.000   0.000  -0.000   0.000   0.000  -0.000  -0.000  -0.000
-24.691  27.389   0.000   0.000   0.000   0.000   0.000   0.000  -0.000   0.000   0.000   0.000   0.000   0.000  -0.000  -0.000
  0.000   0.000  10.895   0.000   0.000  -8.315  -0.000  -0.000   0.000   0.000   0.000   0.000   0.000   0.000   0.000   0.000
  0.000   0.000   0.000  10.895   0.000  -0.000  -8.315  -0.000   0.000   0.000   0.000   0.000   0.000   0.000   0.000   0.000
  0.000   0.000   0.000   0.000  10.895  -0.000  -0.000  -8.315   0.000   0.000   0.000   0.000   0.000   0.000   0.000   0.000
  0.000   0.000  -8.315  -0.000  -0.000   7.788   0.000   0.000   0.000   0.000   0.000   0.000   0.000   0.000   0.000   0.000
  0.000   0.000  -0.000  -8.315  -0.000   0.000   7.788   0.000   0.000   0.000   0.000   0.000   0.000   0.000   0.000   0.000
  0.000   0.000  -0.000  -0.000  -8.315   0.000   0.000   7.788   0.000   0.000   0.000   0.000   0.000   0.000   0.000   0.000
  0.000  -0.000   0.000   0.000   0.000   0.000   0.000   0.000   0.653   0.000  -0.000   0.000   0.000  -0.172  -0.000   0.000
  0.000   0.000   0.000   0.000   0.000   0.000   0.000   0.000   0.000   0.653   0.000   0.000  -0.000  -0.000  -0.172  -0.000
  0.000   0.000   0.000   0.000   0.000   0.000   0.000   0.000  -0.000   0.000   0.419   0.000   0.000   0.000  -0.000  -0.108
 -0.000   0.000   0.000   0.000   0.000   0.000   0.000   0.000   0.000   0.000   0.000   0.653   0.000  -0.000  -0.000  -0.000
  0.000   0.000   0.000   0.000   0.000   0.000   0.000   0.000   0.000  -0.000  -0.000   0.000   0.419  -0.000   0.000   0.000
 -0.000   0.000   0.000   0.000   0.000   0.000   0.000   0.000  -0.172  -0.000   0.000  -0.000  -0.000   0.046   0.000  -0.000
 -0.000   0.000   0.000   0.000   0.000   0.000   0.000   0.000  -0.000  -0.172  -0.000  -0.000   0.000   0.000   0.046   0.000
  0.000  -0.000   0.000   0.000   0.000   0.000   0.000   0.000   0.000  -0.000  -0.108  -0.000   0.000  -0.000   0.000   0.028
  0.000  -0.000   0.000   0.000   0.000   0.000   0.000   0.000  -0.000  -0.000  -0.000  -0.172  -0.000   0.000   0.000   0.000
 -0.000   0.000   0.000   0.000   0.000   0.000   0.000   0.000  -0.000   0.000  -0.000  -0.000  -0.108   0.000  -0.000   0.000
  0.000   0.000  -0.206  -0.000  -0.000   0.189   0.000   0.000   0.000   0.000   0.000   0.000   0.000   0.000   0.000   0.000
  0.000   0.000  -0.000  -0.000  -0.000   0.000   0.000   0.000   0.000   0.000   0.000   0.000   0.000   0.000   0.000   0.000
  0.000   0.000  -0.160  -0.000  -0.000   0.146   0.000   0.000   0.000   0.000   0.000   0.000   0.000   0.000   0.000   0.000
  0.000   0.000  -0.000   0.261  -0.000   0.000  -0.239   0.000   0.000   0.000   0.000   0.000   0.000   0.000   0.000   0.000
  0.000   0.000  -0.000  -0.000  -0.160   0.000   0.000   0.146   0.000   0.000   0.000   0.000   0.000   0.000   0.000   0.000
  0.000   0.000  -0.000  -0.000   0.000   0.000  -0.000  -0.000   0.000   0.000   0.000   0.000   0.000   0.000   0.000   0.000
  0.000   0.000  -0.000   0.000   0.206   0.000  -0.000  -0.189   0.000   0.000   0.000   0.000   0.000   0.000   0.000   0.000
  0.000   0.000   0.143   0.000   0.000  -0.132  -0.000  -0.000   0.000   0.000   0.000   0.000   0.000   0.000   0.000   0.000
  0.000   0.000   0.000   0.000   0.000  -0.000  -0.000  -0.000   0.000   0.000   0.000   0.000   0.000   0.000   0.000   0.000
  0.000   0.000   0.111   0.000   0.000  -0.102  -0.000  -0.000   0.000   0.000   0.000   0.000   0.000   0.000   0.000   0.000
  0.000   0.000   0.000  -0.181   0.000  -0.000   0.167  -0.000   0.000   0.000   0.000   0.000   0.000   0.000   0.000   0.000
  0.000   0.000   0.000   0.000   0.111  -0.000  -0.000  -0.102   0.000   0.000   0.000   0.000   0.000   0.000   0.000   0.000
  0.000   0.000   0.000   0.000  -0.000  -0.000  -0.000   0.000   0.000   0.000   0.000   0.000   0.000   0.000   0.000   0.000
  0.000   0.000   0.000  -0.000  -0.143  -0.000   0.000   0.132   0.000   0.000   0.000   0.000   0.000   0.000   0.000   0.000
 total augmentation occupancy for first ion, spin component:           2
  0.000   0.000   0.000   0.000   0.000   0.000   0.000   0.000   0.000   0.000   0.000  -0.000   0.000   0.000   0.000  -0.000
  0.000  -0.000   0.000   0.000   0.000   0.000   0.000   0.000   0.000  -0.000  -0.000  -0.000   0.000   0.000   0.000   0.000
  0.000   0.000   0.000   0.000   0.000  -0.000  -0.000  -0.000   0.000   0.000   0.000   0.000   0.000   0.000   0.000   0.000
  0.000   0.000   0.000   0.000   0.000  -0.000  -0.000  -0.000   0.000   0.000   0.000   0.000   0.000   0.000   0.000   0.000
  0.000   0.000   0.000   0.000   0.000  -0.000  -0.000  -0.000   0.000   0.000   0.000   0.000   0.000   0.000   0.000   0.000
  0.000   0.000  -0.000  -0.000  -0.000  -0.000  -0.000  -0.000   0.000   0.000   0.000   0.000   0.000   0.000   0.000   0.000
  0.000   0.000  -0.000  -0.000  -0.000  -0.000  -0.000  -0.000   0.000   0.000   0.000   0.000   0.000   0.000   0.000   0.000
  0.000   0.000  -0.000  -0.000  -0.000  -0.000  -0.000  -0.000   0.000   0.000   0.000   0.000   0.000   0.000   0.000   0.000
  0.000   0.000   0.000   0.000   0.000   0.000   0.000   0.000  -0.000  -0.000   0.000  -0.000  -0.000   0.000   0.000  -0.000
  0.000  -0.000   0.000   0.000   0.000   0.000   0.000   0.000  -0.000  -0.000  -0.000  -0.000  -0.000   0.000   0.000   0.000
  0.000  -0.000   0.000   0.000   0.000   0.000   0.000   0.000   0.000  -0.000   0.000  -0.000  -0.000  -0.000   0.000  -0.000
 -0.000  -0.000   0.000   0.000   0.000   0.000   0.000   0.000  -0.000  -0.000  -0.000  -0.000   0.000   0.000   0.000   0.000
  0.000   0.000   0.000   0.000   0.000   0.000   0.000   0.000  -0.000  -0.000  -0.000   0.000   0.000   0.000   0.000   0.000
  0.000   0.000   0.000   0.000   0.000   0.000   0.000   0.000   0.000   0.000  -0.000   0.000   0.000  -0.000  -0.000   0.000
  0.000   0.000   0.000   0.000   0.000   0.000   0.000   0.000   0.000   0.000   0.000   0.000   0.000  -0.000  -0.000  -0.000
 -0.000   0.000   0.000   0.000   0.000   0.000   0.000   0.000  -0.000   0.000  -0.000   0.000  -0.000   0.000  -0.000   0.000
 -0.000   0.000   0.000   0.000   0.000   0.000   0.000   0.000   0.000   0.000   0.000   0.000  -0.000  -0.000  -0.000  -0.000
  0.000   0.000   0.000   0.000   0.000   0.000   0.000   0.000   0.000   0.000  -0.000  -0.000  -0.000  -0.000  -0.000   0.000
  0.000   0.000   0.000   0.000   0.000   0.000   0.000   0.000   0.000   0.000   0.000   0.000   0.000   0.000   0.000   0.000
  0.000   0.000   0.000   0.000   0.000  -0.000   0.000   0.000   0.000   0.000   0.000   0.000   0.000   0.000   0.000   0.000
  0.000   0.000   0.000   0.000   0.000   0.000   0.000   0.000   0.000   0.000   0.000   0.000   0.000   0.000   0.000   0.000
  0.000   0.000   0.000  -0.000   0.000   0.000  -0.000   0.000   0.000   0.000   0.000   0.000   0.000   0.000   0.000   0.000
  0.000   0.000   0.000   0.000   0.000   0.000   0.000   0.000   0.000   0.000   0.000   0.000   0.000   0.000   0.000   0.000
  0.000   0.000   0.000   0.000  -0.000  -0.000  -0.000  -0.000   0.000   0.000   0.000   0.000   0.000   0.000   0.000   0.000
  0.000   0.000   0.000  -0.000  -0.000   0.000   0.000  -0.000   0.000   0.000   0.000   0.000   0.000   0.000   0.000   0.000
  0.000   0.000  -0.000  -0.000  -0.000  -0.000  -0.000  -0.000   0.000   0.000   0.000   0.000   0.000   0.000   0.000   0.000
  0.000   0.000  -0.000  -0.000  -0.000  -0.000  -0.000  -0.000   0.000   0.000   0.000   0.000   0.000   0.000   0.000   0.000
  0.000   0.000  -0.000  -0.000  -0.000  -0.000  -0.000   0.000   0.000   0.000   0.000   0.000   0.000   0.000   0.000   0.000
  0.000   0.000  -0.000   0.000  -0.000  -0.000   0.000  -0.000   0.000   0.000   0.000   0.000   0.000   0.000   0.000   0.000
  0.000   0.000  -0.000  -0.000  -0.000  -0.000  -0.000  -0.000   0.000   0.000   0.000   0.000   0.000   0.000   0.000   0.000
  0.000   0.000   0.000   0.000   0.000  -0.000   0.000   0.000   0.000   0.000   0.000   0.000   0.000   0.000   0.000   0.000
  0.000   0.000  -0.000   0.000   0.000  -0.000   0.000   0.000   0.000   0.000   0.000   0.000   0.000   0.000   0.000   0.000


------------------------ aborting loop because EDIFF is reached ----------------------------------------


 


 total charge     
 
# of ion     s       p       d       f       tot
------------------------------------------------
  1        2.359   5.711   0.301   0.071   8.442
  2        0.512   0.971   2.485   0.000   3.968
  3        1.585   3.235   0.000   0.000   4.820
  4        1.571   3.413   0.000   0.000   4.984
  5        1.548   3.681   0.000   0.000   5.229
------------------------------------------------
tot        7.575  17.011   2.786   0.071  27.443

 


 magnetization (x)
 
# of ion     s       p       d       f       tot
------------------------------------------------
  1        0.000  -0.000   0.000   0.000   0.000
  2       -0.000  -0.000  -0.000   0.000  -0.000
  3       -0.000   0.000   0.000   0.000  -0.000
  4       -0.000   0.000   0.000   0.000  -0.000
  5       -0.000   0.000   0.000   0.000  -0.000
------------------------------------------------
tot        0.000  -0.000  -0.000   0.000   0.000

 
    CHARGE:  cpu time    0.07: real time    0.07
    FORLOC:  cpu time    0.00: real time    0.00
    FORNL :  cpu time    0.08: real time    0.08
    STRESS:  cpu time    0.57: real time    0.57
    FORCOR:  cpu time    0.01: real time    0.01
    FORHAR:  cpu time    0.00: real time    0.00
    MIXING:  cpu time    0.00: real time    0.00

  FORCE on cell =-STRESS in cart. coord.  units (eV):
  Direction    XX          YY          ZZ          XY          YZ          ZX
  --------------------------------------------------------------------------------------
  Alpha Z   154.51853   154.51853   154.51853
  Ewald    -625.55950  -625.55950  -625.55950    -0.00000     0.00000     0.00000
  Hartree   133.40728   133.40728   133.40728    -0.00000    -0.00000    -0.00000
  E(xc)    -156.06609  -156.06609  -156.06609    -0.00000    -0.00000    -0.00000
  Local     -83.04882   -83.04882   -83.04882    -0.00000    -0.00000    -0.00000
  n-local     4.86605     8.70845    13.52077     0.19180    -0.00175     0.05606
  augment    -0.65843    -0.65843    -0.65843    -0.00000     0.00000     0.00000
  Kinetic   558.79971   571.55182   574.76802    -3.05993    -3.54649    -1.94948
  Fock        0.00000     0.00000     0.00000     0.00000     0.00000     0.00000
  -------------------------------------------------------------------------------------
  Total      -0.00210    -0.00210    -0.00210    -0.00000    -0.00000     0.00000
  in kB      -0.05171    -0.05171    -0.05171    -0.00000    -0.00000     0.00000
  external pressure =       -0.05 kB  Pullay stress =        0.00 kB


 VOLUME and BASIS-vectors are now :
 -----------------------------------------------------------------------------
  energy-cutoff  :      500.00
  volume of cell :       65.19
      direct lattice vectors                 reciprocal lattice vectors
     4.024715988  0.000000000  0.000000000     0.248464737 -0.000000000  0.000000000
     0.000000000  4.024715988  0.000000000    -0.000000000  0.248464737  0.000000000
    -0.000000000 -0.000000000  4.024715988    -0.000000000 -0.000000000  0.248464737

  length of vectors
     4.024715988  4.024715988  4.024715988     0.248464737  0.248464737  0.248464737


 FORCES acting on ions
    electron-ion (+dipol)            ewald-force                    non-local-force                 convergence-correction
 -----------------------------------------------------------------------------------------------
   0.169E-13 -.185E-11 -.436E-12   0.124E-14 0.730E-14 0.299E-14   0.112E-24 0.212E-27 -.155E-24   -.697E-14 0.951E-15 0.574E-14
   0.642E-14 0.225E-14 -.485E-15   -.396E-14 -.873E-15 -.396E-15   -.360E-24 0.295E-27 0.000E+00   0.540E-15 0.242E-14 -.650E-14
   0.106E-12 0.806E-14 0.235E-11   0.617E-14 -.670E-14 -.301E-14   -.548E-24 -.109E-26 -.414E-24   -.254E-13 -.482E-13 -.418E-13
   0.660E-14 0.107E-12 -.122E-13   -.491E-14 0.118E-14 -.304E-14   -.131E-25 0.174E-26 0.000E+00   -.654E-13 -.135E-13 -.359E-13
   0.706E-14 0.726E-14 0.802E-13   0.544E-15 -.160E-14 0.438E-14   -.360E-24 0.947E-28 -.414E-24   -.683E-13 -.446E-13 0.776E-15
 -----------------------------------------------------------------------------------------------
   0.143E-12 -.172E-11 0.198E-11   -.923E-15 -.695E-15 0.922E-15   -.117E-23 0.125E-26 -.982E-24   -.166E-12 -.103E-12 -.776E-13
 
 
 POSITION                                       TOTAL-FORCE (eV/Angst)
 -----------------------------------------------------------------------------------
      2.01236      2.01236      2.01236         0.000000     -0.000000      0.000000
      0.00000      0.00000      0.00000        -0.000000     -0.000000      0.000000
      2.01236      0.00000      0.00000        -0.000000      0.000000     -0.000000
      0.00000      2.01236      0.00000        -0.000000      0.000000      0.000000
     -0.00000     -0.00000      2.01236        -0.000000     -0.000000      0.000000
 -----------------------------------------------------------------------------------
    total drift:                               -0.000000     -0.000000      0.000000


--------------------------------------------------------------------------------------------------------



  FREE ENERGIE OF THE ION-ELECTRON SYSTEM (eV)
  ---------------------------------------------------
  free  energy   TOTEN  =       -42.61694987 eV

  energy  without entropy=      -42.61694987  energy(sigma->0) =      -42.61694987
 
 d Force = 0.0000000E+00[ 0.000E+00, 0.000E+00]  d Energy = 0.5495106E-02-0.550E-02
 d Force = 0.0000000E+00[ 0.000E+00, 0.000E+00]  d Ewald  = 0.7808642E+01-0.781E+01


--------------------------------------------------------------------------------------------------------


    POTLOK:  cpu time    1.12: real time    1.12


--------------------------------------------------------------------------------------------------------




--------------------------------------------------------------------------------------------------------


  
 reached required accuracy - stopping structural energy minimisation
 writing wavefunctions
     LOOP+:  cpu time   25.49: real time   25.78
    4ORBIT:  cpu time    0.00: real time    0.00
 


 total charge     
 
# of ion     s       p       d       f       tot
------------------------------------------------
  1        2.359   5.711   0.301   0.071   8.442
  2        0.512   0.971   2.485   0.000   3.968
  3        1.585   3.235   0.000   0.000   4.820
  4        1.571   3.413   0.000   0.000   4.984
  5        1.548   3.681   0.000   0.000   5.229
------------------------------------------------
tot        7.575  17.011   2.786   0.071  27.443

 


 magnetization (x)
 
# of ion     s       p       d       f       tot
------------------------------------------------
  1        0.000  -0.000   0.000   0.000   0.000
  2       -0.000  -0.000  -0.000   0.000  -0.000
  3       -0.000   0.000   0.000   0.000  -0.000
  4       -0.000   0.000   0.000   0.000  -0.000
  5       -0.000   0.000   0.000   0.000  -0.000
------------------------------------------------
tot        0.000  -0.000  -0.000   0.000   0.000

 

 total amount of memory used by VASP on root node    81426. kBytes
========================================================================

   base      :      30000. kBytes
   nonl-proj :      45724. kBytes
   fftplans  :        365. kBytes
   grid      :       2839. kBytes
   one-center:        491. kBytes
   wavefun   :       2007. kBytes
 
  
  
 General timing and accounting informations for this job:
 ========================================================
  
                  Total CPU time used (sec):      100.646
                            User time (sec):       97.022
                          System time (sec):        3.624
                         Elapsed time (sec):      102.315
  
                   Maximum memory used (kb):      104436.
                   Average memory used (kb):           0.
  
                          Minor page faults:        42770
                          Major page faults:            1
                 Voluntary context switches:         4342
