Perovskite (band)                       
           1
     4.024716    0.000000    0.000000
     0.000000    4.024716    0.000000
     0.000000    0.000000    4.024716
   Ba   Ti   O 
   1   1   3
Perovskite (band)                       
           1
     4.024716    0.000000    0.000000
     0.000000    4.024716    0.000000
     0.000000    0.000000    4.024716
   Ba   Ti   O 
   1   1   3
Direct configuration=     1
   0.50000000  0.50000000  0.50000000
   0.00000000  0.00000000  0.00000000
   0.50000000  0.00000000  0.00000000
   0.00000000  0.50000000  0.00000000
   0.00000000  0.00000000  0.50000000
