   5   5   1   0
  0.1106049E+02  0.3809911E-09  0.3809911E-09  0.3809911E-09  0.5000000E-15
  1.000000000000000E-004
  CAR 
 LaAlO3 (band)                           
     60.61912622    -21.39573521  301      8.19796062      1.00000000
    -21.396  0.3658E+01  0.3658E+01  0.1000E+01  0.1000E+01
    -21.122  0.0000E+00  0.0000E+00  0.1000E+01  0.1000E+01
    -20.849  0.0000E+00  0.0000E+00  0.1000E+01  0.1000E+01
    -20.576  0.0000E+00  0.0000E+00  0.1000E+01  0.1000E+01
    -20.302  0.0000E+00  0.0000E+00  0.1000E+01  0.1000E+01
    -20.029  0.0000E+00  0.0000E+00  0.1000E+01  0.1000E+01
    -19.755  0.0000E+00  0.0000E+00  0.1000E+01  0.1000E+01
    -19.482  0.0000E+00  0.0000E+00  0.1000E+01  0.1000E+01
    -19.209  0.0000E+00  0.0000E+00  0.1000E+01  0.1000E+01
    -18.935  0.0000E+00  0.0000E+00  0.1000E+01  0.1000E+01
    -18.662  0.0000E+00  0.0000E+00  0.1000E+01  0.1000E+01
    -18.389  0.0000E+00  0.0000E+00  0.1000E+01  0.1000E+01
    -18.115  0.0000E+00  0.0000E+00  0.1000E+01  0.1000E+01
    -17.842  0.0000E+00  0.0000E+00  0.1000E+01  0.1000E+01
    -17.568  0.0000E+00  0.0000E+00  0.1000E+01  0.1000E+01
    -17.295  0.0000E+00  0.0000E+00  0.1000E+01  0.1000E+01
    -17.022  0.0000E+00  0.0000E+00  0.1000E+01  0.1000E+01
    -16.748  0.0000E+00  0.0000E+00  0.1000E+01  0.1000E+01
    -16.475  0.0000E+00  0.0000E+00  0.1000E+01  0.1000E+01
    -16.201  0.0000E+00  0.0000E+00  0.1000E+01  0.1000E+01
    -15.928  0.0000E+00  0.0000E+00  0.1000E+01  0.1000E+01
    -15.655  0.0000E+00  0.0000E+00  0.1000E+01  0.1000E+01
    -15.381  0.0000E+00  0.0000E+00  0.1000E+01  0.1000E+01
    -15.108  0.0000E+00  0.0000E+00  0.1000E+01  0.1000E+01
    -14.835  0.0000E+00  0.0000E+00  0.1000E+01  0.1000E+01
    -14.561  0.0000E+00  0.0000E+00  0.1000E+01  0.1000E+01
    -14.288  0.0000E+00  0.0000E+00  0.1000E+01  0.1000E+01
    -14.014  0.0000E+00  0.0000E+00  0.1000E+01  0.1000E+01
    -13.741  0.0000E+00  0.0000E+00  0.1000E+01  0.1000E+01
    -13.468  0.0000E+00  0.0000E+00  0.1000E+01  0.1000E+01
    -13.194  0.0000E+00  0.0000E+00  0.1000E+01  0.1000E+01
    -12.921  0.0000E+00  0.0000E+00  0.1000E+01  0.1000E+01
    -12.647  0.0000E+00  0.0000E+00  0.1000E+01  0.1000E+01
    -12.374  0.0000E+00  0.0000E+00  0.1000E+01  0.1000E+01
    -12.101  0.0000E+00  0.0000E+00  0.1000E+01  0.1000E+01
    -11.827  0.0000E+00  0.0000E+00  0.1000E+01  0.1000E+01
    -11.554  0.0000E+00  0.0000E+00  0.1000E+01  0.1000E+01
    -11.281  0.0000E+00  0.0000E+00  0.1000E+01  0.1000E+01
    -11.007  0.0000E+00  0.0000E+00  0.1000E+01  0.1000E+01
    -10.734  0.5615E-07  0.5622E-07  0.1000E+01  0.1000E+01
    -10.460  0.4607E+00  0.4607E+00  0.1126E+01  0.1126E+01
    -10.187  0.1052E+01  0.1052E+01  0.1414E+01  0.1414E+01
     -9.914  0.6513E+00  0.6512E+00  0.1592E+01  0.1592E+01
     -9.640  0.3071E+00  0.3071E+00  0.1676E+01  0.1676E+01
     -9.367  0.1075E+01  0.1075E+01  0.1969E+01  0.1969E+01
     -9.094  0.1011E+01  0.1011E+01  0.2246E+01  0.2246E+01
     -8.820  0.2732E+01  0.2732E+01  0.2993E+01  0.2993E+01
     -8.547  0.1086E+01  0.1086E+01  0.3290E+01  0.3290E+01
     -8.273  0.9038E+00  0.9038E+00  0.3537E+01  0.3537E+01
     -8.000  0.1693E+01  0.1693E+01  0.4000E+01  0.4000E+01
     -7.727  0.1019E-02  0.1019E-02  0.4000E+01  0.4000E+01
     -7.453  0.0000E+00  0.0000E+00  0.4000E+01  0.4000E+01
     -7.180  0.0000E+00  0.0000E+00  0.4000E+01  0.4000E+01
     -6.906  0.5211E-05  0.5206E-05  0.4000E+01  0.4000E+01
     -6.633  0.1019E+01  0.1019E+01  0.4279E+01  0.4279E+01
     -6.360  0.8938E+00  0.8938E+00  0.4523E+01  0.4523E+01
     -6.086  0.2367E+01  0.2367E+01  0.5170E+01  0.5170E+01
     -5.813  0.3528E+01  0.3528E+01  0.6134E+01  0.6134E+01
     -5.540  0.2114E+01  0.2114E+01  0.6712E+01  0.6712E+01
     -5.266  0.6213E+00  0.6213E+00  0.6882E+01  0.6882E+01
     -4.993  0.4309E+00  0.4309E+00  0.7000E+01  0.7000E+01
     -4.719  0.0000E+00  0.0000E+00  0.7000E+01  0.7000E+01
     -4.446  0.0000E+00  0.0000E+00  0.7000E+01  0.7000E+01
     -4.173  0.0000E+00  0.0000E+00  0.7000E+01  0.7000E+01
     -3.899  0.0000E+00  0.0000E+00  0.7000E+01  0.7000E+01
     -3.626  0.0000E+00  0.0000E+00  0.7000E+01  0.7000E+01
     -3.352  0.0000E+00  0.0000E+00  0.7000E+01  0.7000E+01
     -3.079  0.0000E+00  0.0000E+00  0.7000E+01  0.7000E+01
     -2.806  0.0000E+00  0.0000E+00  0.7000E+01  0.7000E+01
     -2.532  0.0000E+00  0.0000E+00  0.7000E+01  0.7000E+01
     -2.259  0.0000E+00  0.0000E+00  0.7000E+01  0.7000E+01
     -1.986  0.0000E+00  0.0000E+00  0.7000E+01  0.7000E+01
     -1.712  0.0000E+00  0.0000E+00  0.7000E+01  0.7000E+01
     -1.439  0.0000E+00  0.0000E+00  0.7000E+01  0.7000E+01
     -1.165  0.0000E+00  0.0000E+00  0.7000E+01  0.7000E+01
     -0.892  0.0000E+00  0.0000E+00  0.7000E+01  0.7000E+01
     -0.619  0.0000E+00  0.0000E+00  0.7000E+01  0.7000E+01
     -0.345  0.0000E+00  0.0000E+00  0.7000E+01  0.7000E+01
     -0.072  0.0000E+00  0.0000E+00  0.7000E+01  0.7000E+01
      0.202  0.2524E-10  0.2546E-10  0.7000E+01  0.7000E+01
      0.475  0.1918E+00  0.1919E+00  0.7052E+01  0.7052E+01
      0.748  0.2874E+00  0.2873E+00  0.7131E+01  0.7131E+01
      1.022  0.1772E+00  0.1771E+00  0.7179E+01  0.7179E+01
      1.295  0.1512E+00  0.1512E+00  0.7221E+01  0.7221E+01
      1.568  0.1436E+00  0.1436E+00  0.7260E+01  0.7260E+01
      1.842  0.1461E+00  0.1461E+00  0.7300E+01  0.7300E+01
      2.115  0.1651E+00  0.1652E+00  0.7345E+01  0.7345E+01
      2.389  0.5412E+00  0.5412E+00  0.7493E+01  0.7493E+01
      2.662  0.3519E+00  0.3519E+00  0.7589E+01  0.7589E+01
      2.935  0.2786E+00  0.2786E+00  0.7665E+01  0.7665E+01
      3.209  0.4618E+00  0.4619E+00  0.7792E+01  0.7792E+01
      3.482  0.1545E+01  0.1545E+01  0.8214E+01  0.8214E+01
      3.755  0.2032E+01  0.2031E+01  0.8769E+01  0.8769E+01
      4.029  0.7650E+00  0.7650E+00  0.8979E+01  0.8979E+01
      4.302  0.8717E+00  0.8717E+00  0.9217E+01  0.9217E+01
      4.576  0.6688E+00  0.6688E+00  0.9400E+01  0.9400E+01
      4.849  0.7015E+00  0.7015E+00  0.9591E+01  0.9591E+01
      5.122  0.6520E+00  0.6520E+00  0.9770E+01  0.9770E+01
      5.396  0.3140E+01  0.3140E+01  0.1063E+02  0.1063E+02
      5.669  0.2593E+01  0.2593E+01  0.1134E+02  0.1134E+02
      5.943  0.1007E+01  0.1007E+01  0.1161E+02  0.1161E+02
      6.216  0.1978E+01  0.1978E+01  0.1215E+02  0.1215E+02
      6.489  0.3830E+01  0.3830E+01  0.1320E+02  0.1320E+02
      6.763  0.1907E+01  0.1907E+01  0.1372E+02  0.1372E+02
      7.036  0.1865E+01  0.1865E+01  0.1423E+02  0.1423E+02
      7.309  0.9938E+00  0.9938E+00  0.1450E+02  0.1450E+02
      7.583  0.1723E+01  0.1723E+01  0.1497E+02  0.1497E+02
      7.856  0.3126E+01  0.3125E+01  0.1583E+02  0.1583E+02
      8.130  0.6260E+00  0.6265E+00  0.1600E+02  0.1600E+02
      8.403  0.0000E+00  0.0000E+00  0.1600E+02  0.1600E+02
      8.676  0.0000E+00  0.0000E+00  0.1600E+02  0.1600E+02
      8.950  0.0000E+00  0.0000E+00  0.1600E+02  0.1600E+02
      9.223  0.0000E+00  0.0000E+00  0.1600E+02  0.1600E+02
      9.497  0.0000E+00  0.0000E+00  0.1600E+02  0.1600E+02
      9.770  0.0000E+00  0.0000E+00  0.1600E+02  0.1600E+02
     10.043  0.0000E+00  0.0000E+00  0.1600E+02  0.1600E+02
     10.317  0.0000E+00  0.0000E+00  0.1600E+02  0.1600E+02
     10.590  0.0000E+00  0.0000E+00  0.1600E+02  0.1600E+02
     10.863  0.0000E+00  0.0000E+00  0.1600E+02  0.1600E+02
     11.137  0.1243E-10  0.1243E-10  0.1600E+02  0.1600E+02
     11.410  0.3009E+00  0.3009E+00  0.1608E+02  0.1608E+02
     11.684  0.5422E+00  0.5422E+00  0.1623E+02  0.1623E+02
     11.957  0.4742E+00  0.4740E+00  0.1636E+02  0.1636E+02
     12.230  0.3725E+01  0.3719E+01  0.1738E+02  0.1738E+02
     12.504  0.8939E+01  0.8931E+01  0.1982E+02  0.1982E+02
     12.777  0.1002E+02  0.1006E+02  0.2256E+02  0.2257E+02
     13.051  0.2245E+01  0.2200E+01  0.2318E+02  0.2317E+02
     13.324  0.1884E+00  0.1981E+00  0.2323E+02  0.2322E+02
     13.597  0.4261E+00  0.4258E+00  0.2334E+02  0.2334E+02
     13.871  0.3000E+00  0.3302E+00  0.2343E+02  0.2343E+02
     14.144  0.4473E+00  0.4396E+00  0.2355E+02  0.2355E+02
     14.417  0.7388E+00  0.7361E+00  0.2375E+02  0.2375E+02
     14.691  0.7692E+00  0.7235E+00  0.2396E+02  0.2395E+02
     14.964  0.1419E+00  0.1691E+00  0.2400E+02  0.2400E+02
     15.238  0.1474E-03  0.1245E-01  0.2400E+02  0.2400E+02
     15.511  0.0000E+00  0.0000E+00  0.2400E+02  0.2400E+02
     15.784  0.0000E+00  0.0000E+00  0.2400E+02  0.2400E+02
     16.058  0.0000E+00  0.0000E+00  0.2400E+02  0.2400E+02
     16.331  0.0000E+00  0.0000E+00  0.2400E+02  0.2400E+02
     16.604  0.0000E+00  0.0000E+00  0.2400E+02  0.2400E+02
     16.878  0.0000E+00  0.0000E+00  0.2400E+02  0.2400E+02
     17.151  0.0000E+00  0.0000E+00  0.2400E+02  0.2400E+02
     17.425  0.0000E+00  0.0000E+00  0.2400E+02  0.2400E+02
     17.698  0.0000E+00  0.0000E+00  0.2400E+02  0.2400E+02
     17.971  0.0000E+00  0.0000E+00  0.2400E+02  0.2400E+02
     18.245  0.0000E+00  0.0000E+00  0.2400E+02  0.2400E+02
     18.518  0.0000E+00  0.0000E+00  0.2400E+02  0.2400E+02
     18.792  0.0000E+00  0.0000E+00  0.2400E+02  0.2400E+02
     19.065  0.0000E+00  0.0000E+00  0.2400E+02  0.2400E+02
     19.338  0.0000E+00  0.0000E+00  0.2400E+02  0.2400E+02
     19.612  0.0000E+00  0.0000E+00  0.2400E+02  0.2400E+02
     19.885  0.0000E+00  0.0000E+00  0.2400E+02  0.2400E+02
     20.158  0.0000E+00  0.0000E+00  0.2400E+02  0.2400E+02
     20.432  0.0000E+00  0.0000E+00  0.2400E+02  0.2400E+02
     20.705  0.0000E+00  0.0000E+00  0.2400E+02  0.2400E+02
     20.979  0.0000E+00  0.0000E+00  0.2400E+02  0.2400E+02
     21.252  0.0000E+00  0.0000E+00  0.2400E+02  0.2400E+02
     21.525  0.0000E+00  0.0000E+00  0.2400E+02  0.2400E+02
     21.799  0.0000E+00  0.0000E+00  0.2400E+02  0.2400E+02
     22.072  0.0000E+00  0.0000E+00  0.2400E+02  0.2400E+02
     22.346  0.0000E+00  0.0000E+00  0.2400E+02  0.2400E+02
     22.619  0.0000E+00  0.0000E+00  0.2400E+02  0.2400E+02
     22.892  0.0000E+00  0.0000E+00  0.2400E+02  0.2400E+02
     23.166  0.0000E+00  0.0000E+00  0.2400E+02  0.2400E+02
     23.439  0.0000E+00  0.0000E+00  0.2400E+02  0.2400E+02
     23.712  0.0000E+00  0.0000E+00  0.2400E+02  0.2400E+02
     23.986  0.0000E+00  0.0000E+00  0.2400E+02  0.2400E+02
     24.259  0.0000E+00  0.0000E+00  0.2400E+02  0.2400E+02
     24.533  0.0000E+00  0.0000E+00  0.2400E+02  0.2400E+02
     24.806  0.0000E+00  0.0000E+00  0.2400E+02  0.2400E+02
     25.079  0.0000E+00  0.0000E+00  0.2400E+02  0.2400E+02
     25.353  0.0000E+00  0.0000E+00  0.2400E+02  0.2400E+02
     25.626  0.0000E+00  0.0000E+00  0.2400E+02  0.2400E+02
     25.900  0.0000E+00  0.0000E+00  0.2400E+02  0.2400E+02
     26.173  0.0000E+00  0.0000E+00  0.2400E+02  0.2400E+02
     26.446  0.0000E+00  0.0000E+00  0.2400E+02  0.2400E+02
     26.720  0.0000E+00  0.0000E+00  0.2400E+02  0.2400E+02
     26.993  0.0000E+00  0.0000E+00  0.2400E+02  0.2400E+02
     27.266  0.0000E+00  0.0000E+00  0.2400E+02  0.2400E+02
     27.540  0.0000E+00  0.0000E+00  0.2400E+02  0.2400E+02
     27.813  0.0000E+00  0.0000E+00  0.2400E+02  0.2400E+02
     28.087  0.0000E+00  0.0000E+00  0.2400E+02  0.2400E+02
     28.360  0.0000E+00  0.0000E+00  0.2400E+02  0.2400E+02
     28.633  0.0000E+00  0.0000E+00  0.2400E+02  0.2400E+02
     28.907  0.0000E+00  0.0000E+00  0.2400E+02  0.2400E+02
     29.180  0.0000E+00  0.0000E+00  0.2400E+02  0.2400E+02
     29.453  0.0000E+00  0.0000E+00  0.2400E+02  0.2400E+02
     29.727  0.0000E+00  0.0000E+00  0.2400E+02  0.2400E+02
     30.000  0.0000E+00  0.0000E+00  0.2400E+02  0.2400E+02
     30.274  0.0000E+00  0.0000E+00  0.2400E+02  0.2400E+02
     30.547  0.0000E+00  0.0000E+00  0.2400E+02  0.2400E+02
     30.820  0.0000E+00  0.0000E+00  0.2400E+02  0.2400E+02
     31.094  0.0000E+00  0.0000E+00  0.2400E+02  0.2400E+02
     31.367  0.0000E+00  0.0000E+00  0.2400E+02  0.2400E+02
     31.641  0.0000E+00  0.0000E+00  0.2400E+02  0.2400E+02
     31.914  0.0000E+00  0.0000E+00  0.2400E+02  0.2400E+02
     32.187  0.0000E+00  0.0000E+00  0.2400E+02  0.2400E+02
     32.461  0.0000E+00  0.0000E+00  0.2400E+02  0.2400E+02
     32.734  0.0000E+00  0.0000E+00  0.2400E+02  0.2400E+02
     33.007  0.0000E+00  0.0000E+00  0.2400E+02  0.2400E+02
     33.281  0.0000E+00  0.0000E+00  0.2400E+02  0.2400E+02
     33.554  0.0000E+00  0.0000E+00  0.2400E+02  0.2400E+02
     33.828  0.0000E+00  0.0000E+00  0.2400E+02  0.2400E+02
     34.101  0.0000E+00  0.0000E+00  0.2400E+02  0.2400E+02
     34.374  0.0000E+00  0.0000E+00  0.2400E+02  0.2400E+02
     34.648  0.0000E+00  0.0000E+00  0.2400E+02  0.2400E+02
     34.921  0.0000E+00  0.0000E+00  0.2400E+02  0.2400E+02
     35.195  0.0000E+00  0.0000E+00  0.2400E+02  0.2400E+02
     35.468  0.0000E+00  0.0000E+00  0.2400E+02  0.2400E+02
     35.741  0.0000E+00  0.0000E+00  0.2400E+02  0.2400E+02
     36.015  0.0000E+00  0.0000E+00  0.2400E+02  0.2400E+02
     36.288  0.0000E+00  0.0000E+00  0.2400E+02  0.2400E+02
     36.561  0.0000E+00  0.0000E+00  0.2400E+02  0.2400E+02
     36.835  0.0000E+00  0.0000E+00  0.2400E+02  0.2400E+02
     37.108  0.0000E+00  0.0000E+00  0.2400E+02  0.2400E+02
     37.382  0.0000E+00  0.0000E+00  0.2400E+02  0.2400E+02
     37.655  0.0000E+00  0.0000E+00  0.2400E+02  0.2400E+02
     37.928  0.0000E+00  0.0000E+00  0.2400E+02  0.2400E+02
     38.202  0.0000E+00  0.0000E+00  0.2400E+02  0.2400E+02
     38.475  0.0000E+00  0.0000E+00  0.2400E+02  0.2400E+02
     38.748  0.0000E+00  0.0000E+00  0.2400E+02  0.2400E+02
     39.022  0.0000E+00  0.0000E+00  0.2400E+02  0.2400E+02
     39.295  0.0000E+00  0.0000E+00  0.2400E+02  0.2400E+02
     39.569  0.0000E+00  0.0000E+00  0.2400E+02  0.2400E+02
     39.842  0.0000E+00  0.0000E+00  0.2400E+02  0.2400E+02
     40.115  0.0000E+00  0.0000E+00  0.2400E+02  0.2400E+02
     40.389  0.0000E+00  0.0000E+00  0.2400E+02  0.2400E+02
     40.662  0.0000E+00  0.0000E+00  0.2400E+02  0.2400E+02
     40.936  0.0000E+00  0.0000E+00  0.2400E+02  0.2400E+02
     41.209  0.0000E+00  0.0000E+00  0.2400E+02  0.2400E+02
     41.482  0.0000E+00  0.0000E+00  0.2400E+02  0.2400E+02
     41.756  0.0000E+00  0.0000E+00  0.2400E+02  0.2400E+02
     42.029  0.0000E+00  0.0000E+00  0.2400E+02  0.2400E+02
     42.302  0.0000E+00  0.0000E+00  0.2400E+02  0.2400E+02
     42.576  0.0000E+00  0.0000E+00  0.2400E+02  0.2400E+02
     42.849  0.0000E+00  0.0000E+00  0.2400E+02  0.2400E+02
     43.123  0.0000E+00  0.0000E+00  0.2400E+02  0.2400E+02
     43.396  0.0000E+00  0.0000E+00  0.2400E+02  0.2400E+02
     43.669  0.0000E+00  0.0000E+00  0.2400E+02  0.2400E+02
     43.943  0.0000E+00  0.0000E+00  0.2400E+02  0.2400E+02
     44.216  0.0000E+00  0.0000E+00  0.2400E+02  0.2400E+02
     44.490  0.0000E+00  0.0000E+00  0.2400E+02  0.2400E+02
     44.763  0.0000E+00  0.0000E+00  0.2400E+02  0.2400E+02
     45.036  0.0000E+00  0.0000E+00  0.2400E+02  0.2400E+02
     45.310  0.0000E+00  0.0000E+00  0.2400E+02  0.2400E+02
     45.583  0.0000E+00  0.0000E+00  0.2400E+02  0.2400E+02
     45.856  0.0000E+00  0.0000E+00  0.2400E+02  0.2400E+02
     46.130  0.0000E+00  0.0000E+00  0.2400E+02  0.2400E+02
     46.403  0.0000E+00  0.0000E+00  0.2400E+02  0.2400E+02
     46.677  0.0000E+00  0.0000E+00  0.2400E+02  0.2400E+02
     46.950  0.0000E+00  0.0000E+00  0.2400E+02  0.2400E+02
     47.223  0.0000E+00  0.0000E+00  0.2400E+02  0.2400E+02
     47.497  0.0000E+00  0.0000E+00  0.2400E+02  0.2400E+02
     47.770  0.0000E+00  0.0000E+00  0.2400E+02  0.2400E+02
     48.044  0.0000E+00  0.0000E+00  0.2400E+02  0.2400E+02
     48.317  0.0000E+00  0.0000E+00  0.2400E+02  0.2400E+02
     48.590  0.0000E+00  0.0000E+00  0.2400E+02  0.2400E+02
     48.864  0.0000E+00  0.0000E+00  0.2400E+02  0.2400E+02
     49.137  0.0000E+00  0.0000E+00  0.2400E+02  0.2400E+02
     49.410  0.0000E+00  0.0000E+00  0.2400E+02  0.2400E+02
     49.684  0.0000E+00  0.0000E+00  0.2400E+02  0.2400E+02
     49.957  0.0000E+00  0.0000E+00  0.2400E+02  0.2400E+02
     50.231  0.0000E+00  0.0000E+00  0.2400E+02  0.2400E+02
     50.504  0.0000E+00  0.0000E+00  0.2400E+02  0.2400E+02
     50.777  0.0000E+00  0.0000E+00  0.2400E+02  0.2400E+02
     51.051  0.0000E+00  0.0000E+00  0.2400E+02  0.2400E+02
     51.324  0.0000E+00  0.0000E+00  0.2400E+02  0.2400E+02
     51.597  0.0000E+00  0.0000E+00  0.2400E+02  0.2400E+02
     51.871  0.0000E+00  0.0000E+00  0.2400E+02  0.2400E+02
     52.144  0.0000E+00  0.0000E+00  0.2400E+02  0.2400E+02
     52.418  0.0000E+00  0.0000E+00  0.2400E+02  0.2400E+02
     52.691  0.0000E+00  0.0000E+00  0.2400E+02  0.2400E+02
     52.964  0.0000E+00  0.0000E+00  0.2400E+02  0.2400E+02
     53.238  0.0000E+00  0.0000E+00  0.2400E+02  0.2400E+02
     53.511  0.0000E+00  0.0000E+00  0.2400E+02  0.2400E+02
     53.785  0.0000E+00  0.0000E+00  0.2400E+02  0.2400E+02
     54.058  0.0000E+00  0.0000E+00  0.2400E+02  0.2400E+02
     54.331  0.0000E+00  0.0000E+00  0.2400E+02  0.2400E+02
     54.605  0.0000E+00  0.0000E+00  0.2400E+02  0.2400E+02
     54.878  0.0000E+00  0.0000E+00  0.2400E+02  0.2400E+02
     55.151  0.0000E+00  0.0000E+00  0.2400E+02  0.2400E+02
     55.425  0.0000E+00  0.0000E+00  0.2400E+02  0.2400E+02
     55.698  0.0000E+00  0.0000E+00  0.2400E+02  0.2400E+02
     55.972  0.0000E+00  0.0000E+00  0.2400E+02  0.2400E+02
     56.245  0.0000E+00  0.0000E+00  0.2400E+02  0.2400E+02
     56.518  0.0000E+00  0.0000E+00  0.2400E+02  0.2400E+02
     56.792  0.0000E+00  0.0000E+00  0.2400E+02  0.2400E+02
     57.065  0.0000E+00  0.0000E+00  0.2400E+02  0.2400E+02
     57.339  0.0000E+00  0.0000E+00  0.2400E+02  0.2400E+02
     57.612  0.0000E+00  0.0000E+00  0.2400E+02  0.2400E+02
     57.885  0.0000E+00  0.0000E+00  0.2400E+02  0.2400E+02
     58.159  0.0000E+00  0.0000E+00  0.2400E+02  0.2400E+02
     58.432  0.0000E+00  0.0000E+00  0.2400E+02  0.2400E+02
     58.705  0.0000E+00  0.0000E+00  0.2400E+02  0.2400E+02
     58.979  0.0000E+00  0.0000E+00  0.2400E+02  0.2400E+02
     59.252  0.0000E+00  0.0000E+00  0.2400E+02  0.2400E+02
     59.526  0.0000E+00  0.0000E+00  0.2400E+02  0.2400E+02
     59.799  0.0000E+00  0.0000E+00  0.2400E+02  0.2400E+02
     60.072  0.0000E+00  0.0000E+00  0.2400E+02  0.2400E+02
     60.346  0.0000E+00  0.0000E+00  0.2400E+02  0.2400E+02
     60.619  0.0000E+00  0.0000E+00  0.2400E+02  0.2400E+02
     60.61912622    -21.39573521  301      8.19796062      1.00000000
    -21.396  0.3528E+01  0.3528E+01  0.1614E-04  0.1614E-04  0.1260E-04  0.1260E-04  0.1897E-04  0.1897E-04  0.2768E-07  0.2767E-07  0.1276E-07  0.1276E-07  0.2019E-04  0.2019E-04  0.2308E-07  0.2307E-07  0.1267E-04  0.1268E-04  0.6711E-06  0.6703E-06  0.3989E-10  0.3929E-10  0.3538E-06  0.3536E-06  0.1170E-05  0.1169E-05  0.4329E-06  0.4330E-06  0.3778E-08  0.3774E-08  0.1051E-05  0.1052E-05
    -21.122  0.0000E+00  0.0000E+00  0.0000E+00  0.0000E+00  0.0000E+00  0.0000E+00  0.0000E+00  0.0000E+00  0.0000E+00  0.0000E+00  0.0000E+00  0.0000E+00  0.0000E+00  0.0000E+00  0.0000E+00  0.0000E+00  0.0000E+00  0.0000E+00  0.0000E+00  0.0000E+00  0.0000E+00  0.0000E+00  0.0000E+00  0.0000E+00  0.0000E+00  0.0000E+00  0.0000E+00  0.0000E+00  0.0000E+00  0.0000E+00  0.0000E+00  0.0000E+00
    -20.849  0.0000E+00  0.0000E+00  0.0000E+00  0.0000E+00  0.0000E+00  0.0000E+00  0.0000E+00  0.0000E+00  0.0000E+00  0.0000E+00  0.0000E+00  0.0000E+00  0.0000E+00  0.0000E+00  0.0000E+00  0.0000E+00  0.0000E+00  0.0000E+00  0.0000E+00  0.0000E+00  0.0000E+00  0.0000E+00  0.0000E+00  0.0000E+00  0.0000E+00  0.0000E+00  0.0000E+00  0.0000E+00  0.0000E+00  0.0000E+00  0.0000E+00  0.0000E+00
    -20.576  0.0000E+00  0.0000E+00  0.0000E+00  0.0000E+00  0.0000E+00  0.0000E+00  0.0000E+00  0.0000E+00  0.0000E+00  0.0000E+00  0.0000E+00  0.0000E+00  0.0000E+00  0.0000E+00  0.0000E+00  0.0000E+00  0.0000E+00  0.0000E+00  0.0000E+00  0.0000E+00  0.0000E+00  0.0000E+00  0.0000E+00  0.0000E+00  0.0000E+00  0.0000E+00  0.0000E+00  0.0000E+00  0.0000E+00  0.0000E+00  0.0000E+00  0.0000E+00
    -20.302  0.0000E+00  0.0000E+00  0.0000E+00  0.0000E+00  0.0000E+00  0.0000E+00  0.0000E+00  0.0000E+00  0.0000E+00  0.0000E+00  0.0000E+00  0.0000E+00  0.0000E+00  0.0000E+00  0.0000E+00  0.0000E+00  0.0000E+00  0.0000E+00  0.0000E+00  0.0000E+00  0.0000E+00  0.0000E+00  0.0000E+00  0.0000E+00  0.0000E+00  0.0000E+00  0.0000E+00  0.0000E+00  0.0000E+00  0.0000E+00  0.0000E+00  0.0000E+00
    -20.029  0.0000E+00  0.0000E+00  0.0000E+00  0.0000E+00  0.0000E+00  0.0000E+00  0.0000E+00  0.0000E+00  0.0000E+00  0.0000E+00  0.0000E+00  0.0000E+00  0.0000E+00  0.0000E+00  0.0000E+00  0.0000E+00  0.0000E+00  0.0000E+00  0.0000E+00  0.0000E+00  0.0000E+00  0.0000E+00  0.0000E+00  0.0000E+00  0.0000E+00  0.0000E+00  0.0000E+00  0.0000E+00  0.0000E+00  0.0000E+00  0.0000E+00  0.0000E+00
    -19.755  0.0000E+00  0.0000E+00  0.0000E+00  0.0000E+00  0.0000E+00  0.0000E+00  0.0000E+00  0.0000E+00  0.0000E+00  0.0000E+00  0.0000E+00  0.0000E+00  0.0000E+00  0.0000E+00  0.0000E+00  0.0000E+00  0.0000E+00  0.0000E+00  0.0000E+00  0.0000E+00  0.0000E+00  0.0000E+00  0.0000E+00  0.0000E+00  0.0000E+00  0.0000E+00  0.0000E+00  0.0000E+00  0.0000E+00  0.0000E+00  0.0000E+00  0.0000E+00
    -19.482  0.0000E+00  0.0000E+00  0.0000E+00  0.0000E+00  0.0000E+00  0.0000E+00  0.0000E+00  0.0000E+00  0.0000E+00  0.0000E+00  0.0000E+00  0.0000E+00  0.0000E+00  0.0000E+00  0.0000E+00  0.0000E+00  0.0000E+00  0.0000E+00  0.0000E+00  0.0000E+00  0.0000E+00  0.0000E+00  0.0000E+00  0.0000E+00  0.0000E+00  0.0000E+00  0.0000E+00  0.0000E+00  0.0000E+00  0.0000E+00  0.0000E+00  0.0000E+00
    -19.209  0.0000E+00  0.0000E+00  0.0000E+00  0.0000E+00  0.0000E+00  0.0000E+00  0.0000E+00  0.0000E+00  0.0000E+00  0.0000E+00  0.0000E+00  0.0000E+00  0.0000E+00  0.0000E+00  0.0000E+00  0.0000E+00  0.0000E+00  0.0000E+00  0.0000E+00  0.0000E+00  0.0000E+00  0.0000E+00  0.0000E+00  0.0000E+00  0.0000E+00  0.0000E+00  0.0000E+00  0.0000E+00  0.0000E+00  0.0000E+00  0.0000E+00  0.0000E+00
    -18.935  0.0000E+00  0.0000E+00  0.0000E+00  0.0000E+00  0.0000E+00  0.0000E+00  0.0000E+00  0.0000E+00  0.0000E+00  0.0000E+00  0.0000E+00  0.0000E+00  0.0000E+00  0.0000E+00  0.0000E+00  0.0000E+00  0.0000E+00  0.0000E+00  0.0000E+00  0.0000E+00  0.0000E+00  0.0000E+00  0.0000E+00  0.0000E+00  0.0000E+00  0.0000E+00  0.0000E+00  0.0000E+00  0.0000E+00  0.0000E+00  0.0000E+00  0.0000E+00
    -18.662  0.0000E+00  0.0000E+00  0.0000E+00  0.0000E+00  0.0000E+00  0.0000E+00  0.0000E+00  0.0000E+00  0.0000E+00  0.0000E+00  0.0000E+00  0.0000E+00  0.0000E+00  0.0000E+00  0.0000E+00  0.0000E+00  0.0000E+00  0.0000E+00  0.0000E+00  0.0000E+00  0.0000E+00  0.0000E+00  0.0000E+00  0.0000E+00  0.0000E+00  0.0000E+00  0.0000E+00  0.0000E+00  0.0000E+00  0.0000E+00  0.0000E+00  0.0000E+00
    -18.389  0.0000E+00  0.0000E+00  0.0000E+00  0.0000E+00  0.0000E+00  0.0000E+00  0.0000E+00  0.0000E+00  0.0000E+00  0.0000E+00  0.0000E+00  0.0000E+00  0.0000E+00  0.0000E+00  0.0000E+00  0.0000E+00  0.0000E+00  0.0000E+00  0.0000E+00  0.0000E+00  0.0000E+00  0.0000E+00  0.0000E+00  0.0000E+00  0.0000E+00  0.0000E+00  0.0000E+00  0.0000E+00  0.0000E+00  0.0000E+00  0.0000E+00  0.0000E+00
    -18.115  0.0000E+00  0.0000E+00  0.0000E+00  0.0000E+00  0.0000E+00  0.0000E+00  0.0000E+00  0.0000E+00  0.0000E+00  0.0000E+00  0.0000E+00  0.0000E+00  0.0000E+00  0.0000E+00  0.0000E+00  0.0000E+00  0.0000E+00  0.0000E+00  0.0000E+00  0.0000E+00  0.0000E+00  0.0000E+00  0.0000E+00  0.0000E+00  0.0000E+00  0.0000E+00  0.0000E+00  0.0000E+00  0.0000E+00  0.0000E+00  0.0000E+00  0.0000E+00
    -17.842  0.0000E+00  0.0000E+00  0.0000E+00  0.0000E+00  0.0000E+00  0.0000E+00  0.0000E+00  0.0000E+00  0.0000E+00  0.0000E+00  0.0000E+00  0.0000E+00  0.0000E+00  0.0000E+00  0.0000E+00  0.0000E+00  0.0000E+00  0.0000E+00  0.0000E+00  0.0000E+00  0.0000E+00  0.0000E+00  0.0000E+00  0.0000E+00  0.0000E+00  0.0000E+00  0.0000E+00  0.0000E+00  0.0000E+00  0.0000E+00  0.0000E+00  0.0000E+00
    -17.568  0.0000E+00  0.0000E+00  0.0000E+00  0.0000E+00  0.0000E+00  0.0000E+00  0.0000E+00  0.0000E+00  0.0000E+00  0.0000E+00  0.0000E+00  0.0000E+00  0.0000E+00  0.0000E+00  0.0000E+00  0.0000E+00  0.0000E+00  0.0000E+00  0.0000E+00  0.0000E+00  0.0000E+00  0.0000E+00  0.0000E+00  0.0000E+00  0.0000E+00  0.0000E+00  0.0000E+00  0.0000E+00  0.0000E+00  0.0000E+00  0.0000E+00  0.0000E+00
    -17.295  0.0000E+00  0.0000E+00  0.0000E+00  0.0000E+00  0.0000E+00  0.0000E+00  0.0000E+00  0.0000E+00  0.0000E+00  0.0000E+00  0.0000E+00  0.0000E+00  0.0000E+00  0.0000E+00  0.0000E+00  0.0000E+00  0.0000E+00  0.0000E+00  0.0000E+00  0.0000E+00  0.0000E+00  0.0000E+00  0.0000E+00  0.0000E+00  0.0000E+00  0.0000E+00  0.0000E+00  0.0000E+00  0.0000E+00  0.0000E+00  0.0000E+00  0.0000E+00
    -17.022  0.0000E+00  0.0000E+00  0.0000E+00  0.0000E+00  0.0000E+00  0.0000E+00  0.0000E+00  0.0000E+00  0.0000E+00  0.0000E+00  0.0000E+00  0.0000E+00  0.0000E+00  0.0000E+00  0.0000E+00  0.0000E+00  0.0000E+00  0.0000E+00  0.0000E+00  0.0000E+00  0.0000E+00  0.0000E+00  0.0000E+00  0.0000E+00  0.0000E+00  0.0000E+00  0.0000E+00  0.0000E+00  0.0000E+00  0.0000E+00  0.0000E+00  0.0000E+00
    -16.748  0.0000E+00  0.0000E+00  0.0000E+00  0.0000E+00  0.0000E+00  0.0000E+00  0.0000E+00  0.0000E+00  0.0000E+00  0.0000E+00  0.0000E+00  0.0000E+00  0.0000E+00  0.0000E+00  0.0000E+00  0.0000E+00  0.0000E+00  0.0000E+00  0.0000E+00  0.0000E+00  0.0000E+00  0.0000E+00  0.0000E+00  0.0000E+00  0.0000E+00  0.0000E+00  0.0000E+00  0.0000E+00  0.0000E+00  0.0000E+00  0.0000E+00  0.0000E+00
    -16.475  0.0000E+00  0.0000E+00  0.0000E+00  0.0000E+00  0.0000E+00  0.0000E+00  0.0000E+00  0.0000E+00  0.0000E+00  0.0000E+00  0.0000E+00  0.0000E+00  0.0000E+00  0.0000E+00  0.0000E+00  0.0000E+00  0.0000E+00  0.0000E+00  0.0000E+00  0.0000E+00  0.0000E+00  0.0000E+00  0.0000E+00  0.0000E+00  0.0000E+00  0.0000E+00  0.0000E+00  0.0000E+00  0.0000E+00  0.0000E+00  0.0000E+00  0.0000E+00
    -16.201  0.0000E+00  0.0000E+00  0.0000E+00  0.0000E+00  0.0000E+00  0.0000E+00  0.0000E+00  0.0000E+00  0.0000E+00  0.0000E+00  0.0000E+00  0.0000E+00  0.0000E+00  0.0000E+00  0.0000E+00  0.0000E+00  0.0000E+00  0.0000E+00  0.0000E+00  0.0000E+00  0.0000E+00  0.0000E+00  0.0000E+00  0.0000E+00  0.0000E+00  0.0000E+00  0.0000E+00  0.0000E+00  0.0000E+00  0.0000E+00  0.0000E+00  0.0000E+00
    -15.928  0.0000E+00  0.0000E+00  0.0000E+00  0.0000E+00  0.0000E+00  0.0000E+00  0.0000E+00  0.0000E+00  0.0000E+00  0.0000E+00  0.0000E+00  0.0000E+00  0.0000E+00  0.0000E+00  0.0000E+00  0.0000E+00  0.0000E+00  0.0000E+00  0.0000E+00  0.0000E+00  0.0000E+00  0.0000E+00  0.0000E+00  0.0000E+00  0.0000E+00  0.0000E+00  0.0000E+00  0.0000E+00  0.0000E+00  0.0000E+00  0.0000E+00  0.0000E+00
    -15.655  0.0000E+00  0.0000E+00  0.0000E+00  0.0000E+00  0.0000E+00  0.0000E+00  0.0000E+00  0.0000E+00  0.0000E+00  0.0000E+00  0.0000E+00  0.0000E+00  0.0000E+00  0.0000E+00  0.0000E+00  0.0000E+00  0.0000E+00  0.0000E+00  0.0000E+00  0.0000E+00  0.0000E+00  0.0000E+00  0.0000E+00  0.0000E+00  0.0000E+00  0.0000E+00  0.0000E+00  0.0000E+00  0.0000E+00  0.0000E+00  0.0000E+00  0.0000E+00
    -15.381  0.0000E+00  0.0000E+00  0.0000E+00  0.0000E+00  0.0000E+00  0.0000E+00  0.0000E+00  0.0000E+00  0.0000E+00  0.0000E+00  0.0000E+00  0.0000E+00  0.0000E+00  0.0000E+00  0.0000E+00  0.0000E+00  0.0000E+00  0.0000E+00  0.0000E+00  0.0000E+00  0.0000E+00  0.0000E+00  0.0000E+00  0.0000E+00  0.0000E+00  0.0000E+00  0.0000E+00  0.0000E+00  0.0000E+00  0.0000E+00  0.0000E+00  0.0000E+00
    -15.108  0.0000E+00  0.0000E+00  0.0000E+00  0.0000E+00  0.0000E+00  0.0000E+00  0.0000E+00  0.0000E+00  0.0000E+00  0.0000E+00  0.0000E+00  0.0000E+00  0.0000E+00  0.0000E+00  0.0000E+00  0.0000E+00  0.0000E+00  0.0000E+00  0.0000E+00  0.0000E+00  0.0000E+00  0.0000E+00  0.0000E+00  0.0000E+00  0.0000E+00  0.0000E+00  0.0000E+00  0.0000E+00  0.0000E+00  0.0000E+00  0.0000E+00  0.0000E+00
    -14.835  0.0000E+00  0.0000E+00  0.0000E+00  0.0000E+00  0.0000E+00  0.0000E+00  0.0000E+00  0.0000E+00  0.0000E+00  0.0000E+00  0.0000E+00  0.0000E+00  0.0000E+00  0.0000E+00  0.0000E+00  0.0000E+00  0.0000E+00  0.0000E+00  0.0000E+00  0.0000E+00  0.0000E+00  0.0000E+00  0.0000E+00  0.0000E+00  0.0000E+00  0.0000E+00  0.0000E+00  0.0000E+00  0.0000E+00  0.0000E+00  0.0000E+00  0.0000E+00
    -14.561  0.0000E+00  0.0000E+00  0.0000E+00  0.0000E+00  0.0000E+00  0.0000E+00  0.0000E+00  0.0000E+00  0.0000E+00  0.0000E+00  0.0000E+00  0.0000E+00  0.0000E+00  0.0000E+00  0.0000E+00  0.0000E+00  0.0000E+00  0.0000E+00  0.0000E+00  0.0000E+00  0.0000E+00  0.0000E+00  0.0000E+00  0.0000E+00  0.0000E+00  0.0000E+00  0.0000E+00  0.0000E+00  0.0000E+00  0.0000E+00  0.0000E+00  0.0000E+00
    -14.288  0.0000E+00  0.0000E+00  0.0000E+00  0.0000E+00  0.0000E+00  0.0000E+00  0.0000E+00  0.0000E+00  0.0000E+00  0.0000E+00  0.0000E+00  0.0000E+00  0.0000E+00  0.0000E+00  0.0000E+00  0.0000E+00  0.0000E+00  0.0000E+00  0.0000E+00  0.0000E+00  0.0000E+00  0.0000E+00  0.0000E+00  0.0000E+00  0.0000E+00  0.0000E+00  0.0000E+00  0.0000E+00  0.0000E+00  0.0000E+00  0.0000E+00  0.0000E+00
    -14.014  0.0000E+00  0.0000E+00  0.0000E+00  0.0000E+00  0.0000E+00  0.0000E+00  0.0000E+00  0.0000E+00  0.0000E+00  0.0000E+00  0.0000E+00  0.0000E+00  0.0000E+00  0.0000E+00  0.0000E+00  0.0000E+00  0.0000E+00  0.0000E+00  0.0000E+00  0.0000E+00  0.0000E+00  0.0000E+00  0.0000E+00  0.0000E+00  0.0000E+00  0.0000E+00  0.0000E+00  0.0000E+00  0.0000E+00  0.0000E+00  0.0000E+00  0.0000E+00
    -13.741  0.0000E+00  0.0000E+00  0.0000E+00  0.0000E+00  0.0000E+00  0.0000E+00  0.0000E+00  0.0000E+00  0.0000E+00  0.0000E+00  0.0000E+00  0.0000E+00  0.0000E+00  0.0000E+00  0.0000E+00  0.0000E+00  0.0000E+00  0.0000E+00  0.0000E+00  0.0000E+00  0.0000E+00  0.0000E+00  0.0000E+00  0.0000E+00  0.0000E+00  0.0000E+00  0.0000E+00  0.0000E+00  0.0000E+00  0.0000E+00  0.0000E+00  0.0000E+00