    5    5    1    2
  0.1106049E+02  0.3809911E-09  0.3809911E-09  0.3809911E-09  0.5000000E-15
  1.000000000000000E-004
  CAR 
 LaAlO3 (band)                           
   32  300   24
 
  0.0000000E+00  0.0000000E+00  0.0000000E+00  0.3333333E-02
   1      -22.631669    -22.631578
   2      -10.169190    -10.169198
   3       -8.157035     -8.157036
   4       -8.157034     -8.157036
   5       -6.184087     -6.184077
   6       -6.184087     -6.184077
   7       -6.184087     -6.184076
   8        3.516865      3.516837
   9        3.516865      3.516837
  10        3.516866      3.516838
  11        6.463193      6.463219
  12        6.463193      6.463219
  13        6.463198      6.463220
  14        7.735295      7.735306
  15        7.735295      7.735306
  16        7.735316      7.735308
  17       11.361552     11.361552
  18       11.361573     11.361562
  19       12.419115     12.419373
  20       12.647006     12.647289
  21       12.647069     12.647402
  22       12.689793     12.663592
  23       12.869683     12.870053
  24       12.870058     12.870280
 
  0.0000000E+00  0.1020408E-01  0.0000000E+00  0.3333333E-02
   1      -22.631582    -22.631490
   2      -10.169444    -10.169452
   3       -8.158538     -8.158540
   4       -8.156969     -8.156971
   5       -6.183921     -6.183911
   6       -6.183921     -6.183911
   7       -6.182330     -6.182319
   8        3.516696      3.516668
   9        3.516696      3.516669
  10        3.516878      3.516850
  11        6.461571      6.461592
  12        6.462363      6.462389
  13        6.462376      6.462389
  14        7.733013      7.733017
  15        7.734571      7.734582
  16        7.734578      7.734591
  17       11.363105     11.363111
  18       11.363768     11.363771
  19       12.418900     12.419222
  20       12.646853     12.647195
  21       12.647292     12.647730
  22       12.699450     12.680774
  23       12.869424     12.869112
  24       12.869804     12.870775
 
  0.0000000E+00  0.2040816E-01  0.0000000E+00  0.3333333E-02
   1      -22.631318    -22.631227
   2      -10.170204    -10.170212
   3       -8.163021     -8.163023
   4       -8.156774     -8.156776
   5       -6.183426     -6.183415
   6       -6.183425     -6.183415
   7       -6.177085     -6.177075
   8        3.516187      3.516159
   9        3.516188      3.516162
  10        3.516921      3.516893
  11        6.456703      6.456724
  12        6.459883      6.459909
  13        6.459885      6.459911
  14        7.726083      7.726103
  15        7.732400      7.732411
  16        7.732404      7.732421
  17       11.367764     11.367780
  18       11.370395     11.370404
  19       12.418193     12.418521
  20       12.645990     12.646304
  21       12.647804     12.646674
  22       12.660833     12.660915
  23       12.866264     12.866449
  24       12.869071     12.870993
 
  0.0000000E+00  0.3061224E-01  0.0000000E+00  0.3333333E-02
   1      -22.630880    -22.630787
   2      -10.171475    -10.171483
   3       -8.170404     -8.170405
   4       -8.156450     -8.156452
   5       -6.182601     -6.182591
   6       -6.182601     -6.182591
   7       -6.168435     -6.168425
   8        3.515335      3.515307
   9        3.515336      3.515309
  10        3.517005      3.516977
  11        6.448638      6.448662
  12        6.455783      6.455808
  13        6.455790      6.455814
  14        7.714613      7.714629
  15        7.728788      7.728799
  16        7.728790      7.728807
  17       11.375487     11.375494
  18       11.381371     11.381373
  19       12.417965     12.417739
  20       12.644717     12.645447
  21       12.649691     12.649863
  22       12.810453     12.675733
  23       12.862035     12.862983
  24       12.868984     12.867617
 
  0.0000000E+00  0.4081633E-01  0.0000000E+00  0.3333333E-02
   1      -22.630265    -22.630174
   2      -10.173166    -10.173174
   3       -8.180556     -8.180557
   4       -8.155998     -8.155999
   5       -6.181450     -6.181439
   6       -6.181450     -6.181439
   7       -6.156506     -6.156495
   8        3.514136      3.514108
   9        3.514137      3.514108
  10        3.517147      3.517118
  11        6.437456      6.437480
  12        6.450114      6.450140
  13        6.450118      6.450141
  14        7.698667      7.698687
  15        7.723758      7.723769
  16        7.723795      7.723789
  17       11.386217     11.386222
  18       11.396579     11.396586
  19       12.415527     12.415934
  20       12.642824     12.643225
  21       12.646327     12.646947
  22       12.670191     12.843321
  23       12.856288     12.856507
  24       12.863245     12.871123
 
  0.0000000E+00  0.5102041E-01  0.0000000E+00  0.3333333E-02
   1      -22.629483    -22.629392
   2      -10.175473    -10.175481
   3       -8.193304     -8.193305
   4       -8.155420     -8.155421
   5       -6.179980     -6.179969
   6       -6.179980     -6.179969
   7       -6.141471     -6.141460
   8        3.512582      3.512554
   9        3.512582      3.512555
  10        3.517372      3.517349
  11        6.423255      6.423280
  12        6.442945      6.442971
  13        6.442948      6.442972
  14        7.678328      7.678347
  15        7.717293      7.717304
  16        7.717294      7.717324
  17       11.399870     11.399879
  18       11.415892     11.415882
  19       12.413585     12.414100
  20       12.640497     12.640905
  21       12.652225     12.649837
  22       12.738534     12.740831
  23       12.849549     12.849984
  24       12.864097     12.869072
 
  0.0000000E+00  0.6122449E-01  0.0000000E+00  0.3333333E-02
   1      -22.628535    -22.628444
   2      -10.178311    -10.178319
   3       -8.208467     -8.208469
   4       -8.154718     -8.154719
   5       -6.178194     -6.178184
   6       -6.178194     -6.178184
   7       -6.123536     -6.123526
   8        3.510666      3.510638
   9        3.510667      3.510639
  10        3.517720      3.517699
  11        6.406157      6.406182
  12        6.434364      6.434389
  13        6.434364      6.434390
  14        7.653695      7.653714
  15        7.709424      7.709435
  16        7.709428      7.709437
  17       11.416328     11.416341
  18       11.439058     11.439084
  19       12.411355     12.411776
  20       12.637798     12.637983
  21       12.640560     12.646161
  22       12.693388     12.779659
  23       12.842305     12.842550
  24       12.847868     12.882023
 
  0.0000000E+00  0.7142857E-01  0.0000000E+00  0.3333333E-02
   1      -22.627435    -22.627343
   2      -10.181694    -10.181702
   3       -8.225801     -8.225803
   4       -8.154059     -8.154061
   5       -6.176101     -6.176090
   6       -6.176100     -6.176090
   7       -6.102936     -6.102926
   8        3.508378      3.508351
   9        3.508379      3.508351
  10        3.518230      3.518201
  11        6.386299      6.386325
  12        6.424470      6.424495
  13        6.424471      6.424499
  14        7.624926      7.624957
  15        7.700171      7.700182
  16        7.700187      7.700213
  17       11.435473     11.435484
  18       11.465914     11.465917
  19       12.408504     12.408973
  20       12.634317     12.634650
  21       12.637635     12.645547
  22       12.668775     12.674032
  23       12.834455     12.834743
  24       12.840540     12.849734
 
  0.0000000E+00  0.8163265E-01  0.0000000E+00  0.3333333E-02
   1      -22.626162    -22.626071
   2      -10.185611    -10.185619
   3       -8.244991     -8.244993
   4       -8.153122     -8.153123
   5       -6.173705     -6.173694
   6       -6.173705     -6.173694
   7       -6.079911     -6.079901
   8        3.505710      3.505682
   9        3.505710      3.505683
  10        3.518944      3.518916
  11        6.363878      6.363898
  12        6.413387      6.413412
  13        6.413388      6.413412
  14        7.592218      7.592217
  15        7.689556      7.689567
  16        7.689556      7.689570
  17       11.457129     11.457142
  18       11.496162     11.496171
  19       12.405465     12.405742
  20       12.630583     12.630822
  21       12.632922     12.639808
  22       12.754331     12.674680
  23       12.826606     12.826839
  24       12.850489     12.849071
 
  0.0000000E+00  0.9183673E-01  0.0000000E+00  0.3333333E-02
   1      -22.624735    -22.624643
   2      -10.190081    -10.190089
   3       -8.265819     -8.265820
   4       -8.152071     -8.152073
   5       -6.171016     -6.171006
   6       -6.171016     -6.171006
   7       -6.054726     -6.054716
   8        3.502648      3.502621
   9        3.502649      3.502621
  10        3.519915      3.519887
  11        6.339051      6.339075
  12        6.401244      6.401268
  13        6.401244      6.401269
  14        7.555744      7.555706
  15        7.677605      7.677616
  16        7.677674      7.677621
  17       11.481130     11.481136
  18       11.529516     11.529532
  19       12.404997     12.402452
  20       12.626530     12.626629
  21       12.655610     12.629611
  22       12.760674     12.682979
  23       12.818853     12.819196
  24       12.852733     12.837202
 
  0.0000000E+00  0.1020408E+00  0.0000000E+00  0.3333333E-02
   1      -22.623159    -22.623067
   2      -10.195115    -10.195123
   3       -8.288018     -8.288020
   4       -8.150911     -8.150912
   5       -6.168045     -6.168035
   6       -6.168045     -6.168035
   7       -6.027643     -6.027633
   8        3.499184      3.499156
   9        3.499184      3.499156
  10        3.521202      3.521174
  11        6.312023      6.312045
  12        6.388182      6.388206
  13        6.388181      6.388207
  14        7.515570      7.515585
  15        7.664348      7.664358
  16        7.664355      7.664361
  17       11.507229     11.507251
  18       11.565648     11.565673
  19       12.398363     12.398614
  20       12.621782     12.622050
  21       12.628143     12.625106
  22       12.749424     12.692195
  23       12.811412     12.811688
  24       12.862683     12.815169
 
  0.0000000E+00  0.1122449E+00  0.0000000E+00  0.3333333E-02
   1      -22.621439    -22.621347
   2      -10.200723    -10.200730
   3       -8.311325     -8.311327
   4       -8.149645     -8.149647
   5       -6.164803     -6.164792
   6       -6.164803     -6.164792
   7       -5.998927     -5.998917
   8        3.495303      3.495275
   9        3.495303      3.495276
  10        3.522863      3.522835
  11        6.282989      6.283011
  12        6.374350      6.374374
  13        6.374353      6.374377
  14        7.472104      7.472071
  15        7.649817      7.649827
  16        7.649828      7.649849
  17       11.535217     11.535239
  18       11.604234     11.604243
  19       12.394389     12.394895
  20       12.616999     12.617166
  21       12.625901     12.639478
  22       12.717767     12.733746
  23       12.804398     12.804805
  24       12.891619     12.815933
 
  0.0000000E+00  0.1224490E+00  0.0000000E+00  0.3333333E-02
   1      -22.619583    -22.619492
   2      -10.206910    -10.206918
   3       -8.335485     -8.335487
   4       -8.148280     -8.148281
   5       -6.161300     -6.161290
   6       -6.161300     -6.161289
   7       -5.968833     -5.968823
   8        3.490996      3.490968
   9        3.490997      3.490969
  10        3.524964      3.524935
  11        6.252155      6.252178
  12        6.359905      6.359929
  13        6.359907      6.359929
  14        7.425344      7.425343
  15        7.634049      7.634059
  16        7.634060      7.634071
  17       11.564806     11.564840
  18       11.644830     11.644875
  19       12.390564     12.390432
  20       12.611744     12.612039
  21       12.612799     12.616265
  22       12.733406     12.730223
  23       12.797729     12.798047
  24       12.857522     12.841014
 
  0.0000000E+00  0.1326531E+00  0.0000000E+00  0.3333333E-02
   1      -22.617619    -22.617527
   2      -10.213709    -10.213717
   3       -8.360450     -8.360452
   4       -8.146903     -8.146905
   5       -6.157553     -6.157542
   6       -6.157552     -6.157542
   7       -5.937636     -5.937626
   8        3.486252      3.486225
   9        3.486253      3.486226
  10        3.527560      3.527532
  11        6.219719      6.219739
  12        6.344999      6.345022
  13        6.344999      6.345023
  14        7.375626      7.375639
  15        7.617076      7.617086
  16        7.617078      7.617087
  17       11.595705     11.595739
  18       11.687096     11.687136
  19       12.385699     12.386001
  20       12.606404     12.606684
  21       12.608710     12.608042
  22       12.769267     12.747529
  23       12.791604     12.791897
  24       12.807366     12.886663
 
  0.0000000E+00  0.1428571E+00  0.0000000E+00  0.3333333E-02
   1      -22.615513    -22.615421
   2      -10.221073    -10.221081
   3       -8.385597     -8.385599
   4       -8.145357     -8.145358
   5       -6.153571     -6.153560
   6       -6.153570     -6.153560
   7       -5.905514     -5.905505
   8        3.481063      3.481035
   9        3.481063      3.481036
  10        3.530736      3.530713
  11        6.185907      6.185928
  12        6.329810      6.329833
  13        6.329810      6.329834
  14        7.323174      7.323244
  15        7.598950      7.598959
  16        7.598950      7.598990
  17       11.627607     11.627659
  18       11.730606     11.730656
  19       12.381094     12.381453
  20       12.600979     12.601250
  21       12.610131     12.630699
  22       12.775509     12.754199
  23       12.786029     12.786288
  24       12.838444     12.812151
 
  0.0000000E+00  0.1530612E+00  0.0000000E+00  0.3333333E-02
   1      -22.613294    -22.613202
   2      -10.229026    -10.229034
   3       -8.410909     -8.410911
   4       -8.143727     -8.143729
   5       -6.149371     -6.149361
   6       -6.149371     -6.149360
   7       -5.872718     -5.872708
   8        3.475420      3.475393
   9        3.475421      3.475393
  10        3.534553      3.534526
  11        6.150916      6.150936
  12        6.314494      6.314516
  13        6.314495      6.314516
  14        7.268175      7.268150
  15        7.579710      7.579720
  16        7.579715      7.579729
  17       11.660151     11.660198
  18       11.774927     11.774980
  19       12.376264     12.376513
  20       12.595444     12.595731
  21       12.595966     12.598392
  22       12.779848     12.776306
  23       12.780882     12.781201
  24       12.818492     12.834963
 
  0.0000000E+00  0.1632653E+00  0.0000000E+00  0.3333333E-02
   1      -22.610971    -22.610879
   2      -10.237565    -10.237572
   3       -8.436188     -8.436191
   4       -8.142021     -8.142023
   5       -6.144970     -6.144960
   6       -6.144970     -6.144960
   7       -5.839452     -5.839442
   8        3.469321      3.469294
   9        3.469321      3.469294
  10        3.539079      3.539051
  11        6.114950      6.114969
  12        6.299209      6.299232
  13        6.299210      6.299233
  14        7.210783      7.210824
  15        7.559405      7.559414
  16        7.559406      7.559421
  17       11.692999     11.693058
  18       11.819617     11.819679
  19       12.371329     12.371598
  20       12.589933     12.590218
  21       12.590870     12.595566
  22       12.776222     12.776507
  23       12.778211     12.788417
  24       12.816235     12.801325
 
  0.0000000E+00  0.1734694E+00  0.0000000E+00  0.3333333E-02
   1      -22.608554    -22.608463
   2      -10.246680    -10.246687
   3       -8.461258     -8.461260
   4       -8.140245     -8.140247
   5       -6.140385     -6.140375
   6       -6.140385     -6.140374
   7       -5.805908     -5.805899
   8        3.462763      3.462736
   9        3.462763      3.462736
  10        3.544381      3.544354
  11        6.078203      6.078220
  12        6.284114      6.284136
  13        6.284114      6.284144
  14        7.151315      7.151320
  15        7.538082      7.538092
  16        7.538084      7.538093
  17       11.725794     11.725862
  18       11.864242     11.864325
  19       12.366311     12.366681
  20       12.584484     12.584771
  21       12.587447     12.588629
  22       12.772013     12.772275
  23       12.772887     12.786587
  24       12.821611     12.845927
 
  0.0000000E+00  0.1836735E+00  0.0000000E+00  0.3333333E-02
   1      -22.606073    -22.605981
   2      -10.256385    -10.256392
   3       -8.486033     -8.486035
   4       -8.138645     -8.138647
   5       -6.135635     -6.135625
   6       -6.135635     -6.135625
   7       -5.772275     -5.772266
   8        3.455747      3.455720
   9        3.455747      3.455720
  10        3.550523      3.550496
  11        6.040834      6.040851
  12        6.269343      6.269365
  13        6.269344      6.269366
  14        7.089946      7.089938
  15        7.515791      7.515801
  16        7.515794      7.515803
  17       11.758169     11.758247
  18       11.908363     11.908446
  19       12.361165     12.361444
  20       12.579218     12.579407
  21       12.579965     12.581341
  22       12.768159     12.768418
  23       12.775071     12.769130
  24       12.853487     12.872864
 
  0.0000000E+00  0.1938776E+00  0.0000000E+00  0.3333333E-02
   1      -22.603488    -22.603396
   2      -10.266565    -10.266573
   3       -8.510043     -8.510045
   4       -8.136757     -8.136758
   5       -6.130736     -6.130725
   6       -6.130736     -6.130725
   7       -5.738675     -5.738666
   8        3.448282      3.448255
   9        3.448282      3.448255
  10        3.557577      3.557548
  11        6.003086      6.003103
  12        6.255071      6.255092
  13        6.255072      6.255093
  14        7.026858      7.026865
  15        7.492595      7.492605
  16        7.492597      7.492606
  17       11.789811     11.789898
  18       11.951567     11.951661
  19       12.356014     12.356322
  20       12.573924     12.574208
  21       12.574272     12.586574
  22       12.764652     12.764933
  23       12.765234     12.776591
  24       12.880295     12.875531
 
  0.0000000E+00  0.2040816E+00  0.0000000E+00  0.3333333E-02
   1      -22.600862    -22.600769
   2      -10.277422    -10.277430
   3       -8.533666     -8.533668
   4       -8.134976     -8.134977
   5       -6.125709     -6.125698
   6       -6.125709     -6.125698
   7       -5.705345     -5.705336
   8        3.440376      3.440349
   9        3.440377      3.440349
  10        3.565595      3.565568
  11        5.965099      5.965115
  12        6.241413      6.241434
  13        6.241417      6.241434
  14        6.962264      6.962276
  15        7.468539      7.468548
  16        7.468545      7.468549
  17       11.820380     11.820479
  18       11.993463     11.993566
  19       12.350831     12.351098
  20       12.568874     12.569152
  21       12.569213     12.569684
  22       12.761461     12.761720
  23       12.773302     12.763824
  24       12.918785     12.925571
 
  0.0000000E+00  0.2142857E+00  0.0000000E+00  0.3333333E-02
   1      -22.598167    -22.598075
   2      -10.288662    -10.288670
   3       -8.556486     -8.556488
   4       -8.133001     -8.133003
   5       -6.120571     -6.120560
   6       -6.120571     -6.120560
   7       -5.672343     -5.672335
   8        3.432045      3.432018
   9        3.432045      3.432019
  10        3.574636      3.574609
  11        5.927052      5.927067
  12        6.228505      6.228526
  13        6.228505      6.228527
  14        6.896402      6.896414
  15        7.443696      7.443705
  16        7.443697      7.443705
  17       11.849642     11.849751
  18       12.033698     12.033812
  19       12.346960     12.345938
  20       12.564018     12.564301
  21       12.590953     12.565677
  22       12.758554     12.758852
  23       12.764885     12.759728
  24       13.014176     13.049684
 
  0.0000000E+00  0.2244898E+00  0.0000000E+00  0.3333333E-02
   1      -22.595429    -22.595337
   2      -10.300358    -10.300366
   3       -8.578475     -8.578477
   4       -8.130995     -8.130997
   5       -6.115344     -6.115333
   6       -6.115344     -6.115333
   7       -5.639824     -5.639815
   8        3.423309      3.423282
   9        3.423309      3.423282
  10        3.584750      3.584726
  11        5.889098      5.889113
  12        6.216457      6.216477
  13        6.216457      6.216478
  14        6.829455      6.829461
  15        7.418123      7.418132
  16        7.418124      7.418132
  17       11.877356     11.877481
  18       12.071977     12.072105
  19       12.340527     12.340754
  20       12.559386     12.559658
  21       12.560172     12.559749
  22       12.755890     12.756251
  23       12.756701     12.759949
  24       12.999279     13.138243
 
  0.0000000E+00  0.2346939E+00  0.0000000E+00  0.3333333E-02
   1      -22.592674    -22.592582
   2      -10.312511    -10.312519
   3       -8.599693     -8.599696
   4       -8.128966     -8.128968
   5       -6.110050     -6.110040
   6       -6.110050     -6.110040
   7       -5.607945     -5.607936
   8        3.414193      3.414166
   9        3.414193      3.414167
  10        3.595977      3.595950
  11        5.851386      5.851401
  12        6.205367      6.205387
  13        6.205367      6.205387
  14        6.761601      6.761612
  15        7.391881      7.391890
  16        7.391882      7.391890
  17       11.903368     11.903503
  18       12.108063     12.108206
  19       12.335346     12.335695
  20       12.554942     12.555234
  21       12.555004     12.559836
  22       12.753448     12.753752
  23       12.755261     12.756532
  24       13.046179     13.166577
 
  0.0000000E+00  0.2448980E+00  0.0000000E+00  0.3333333E-02
   1      -22.589883    -22.589791
   2      -10.324990    -10.324997
   3       -8.619818     -8.619821
   4       -8.126921     -8.126923
   5       -6.104709     -6.104698
   6       -6.104709     -6.104698
   7       -5.576720     -5.576711
   8        3.404729      3.404702
   9        3.404729      3.404702
  10        3.608360      3.608334
  11        5.814061      5.814075
  12        6.195333      6.195353
  13        6.195333      6.195353
  14        6.693039      6.693055
  15        7.365047      7.365055
  16        7.365047      7.365056
  17       11.927570     11.927715
  18       12.141798     12.141945
  19       12.330346     12.330589
  20       12.550748     12.551038
  21       12.550901     12.551844
  22       12.751219     12.751516
  23       12.756244     12.755033
  24       13.147424     13.143552
 
  0.0000000E+00  0.2551020E+00  0.0000000E+00  0.3333333E-02
   1      -22.587083    -22.586991
   2      -10.337779    -10.337787
   3       -8.638942     -8.638944
   4       -8.124870     -8.124871
   5       -6.099342     -6.099331
   6       -6.099342     -6.099331
   7       -5.546284     -5.546275
   8        3.394951      3.394925
   9        3.394952      3.394925
  10        3.621925      3.621898
  11        5.777256      5.777269
  12        6.186429      6.186449
  13        6.186429      6.186449
  14        6.623961      6.624003
  15        7.337687      7.337695
  16        7.337687      7.337700
  17       11.949915     11.950074
  18       12.173068     12.173228
  19       12.325318     12.325581
  20       12.546771     12.547056
  21       12.547224     12.547163
  22       12.749164     12.749440
  23       12.750369     12.750977
  24       13.148895     13.239104
 
  0.0000000E+00  0.2653061E+00  0.0000000E+00  0.3333333E-02
   1      -22.584278    -22.584186
   2      -10.350821    -10.350829
   3       -8.657005     -8.657007
   4       -8.122737     -8.122739
   5       -6.093971     -6.093960
   6       -6.093971     -6.093960
   7       -5.516720     -5.516712
   8        3.384902      3.384876
   9        3.384902      3.384876
  10        3.636693      3.636666
  11        5.741098      5.741111
  12        6.178718      6.178737
  13        6.178720      6.178737
  14        6.554550      6.554560
  15        7.309875      7.309883
  16        7.309884      7.309884
  17       11.970422     11.970588
  18       12.201860     12.202032
  19       12.320432     12.320700
  20       12.543037     12.543318
  21       12.543859     12.543745
  22       12.747283     12.747557
  23       12.748304     12.748474
  24       13.245595     13.232876
 
  0.0000000E+00  0.2755102E+00  0.0000000E+00  0.3333333E-02
   1      -22.581494    -22.581401
   2      -10.364052    -10.364060
   3       -8.674051     -8.674053
   4       -8.120699     -8.120701
   5       -6.088620     -6.088609
   6       -6.088620     -6.088609
   7       -5.488103     -5.488094
   8        3.374628      3.374602
   9        3.374628      3.374602
  10        3.652671      3.652643
  11        5.705701      5.705713
  12        6.172247      6.172266
  13        6.172248      6.172266
  14        6.484995      6.484994
  15        7.281687      7.281695
  16        7.281688      7.281695
  17       11.989101     11.989279
  18       12.228179     12.228382
  19       12.315657     12.315927
  20       12.539515     12.539799
  21       12.539552     12.540075
  22       12.745544     12.745817
  23       12.746466     12.746373
  24       13.288903     13.247114
 
  0.0000000E+00  0.2857143E+00  0.0000000E+00  0.3333333E-02
   1      -22.578739    -22.578646
   2      -10.377585    -10.377593
   3       -8.690078     -8.690080
   4       -8.118680     -8.118681
   5       -6.083310     -6.083300
   6       -6.083310     -6.083300
   7       -5.460528     -5.460519
   8        3.364179      3.364152
   9        3.364179      3.364152
  10        3.669855      3.669827
  11        5.671180      5.671191
  12        6.167052      6.167071
  13        6.167053      6.167071
  14        6.415415      6.415421
  15        7.253182      7.253190
  16        7.253183      7.253190
  17       12.006043     12.006232
  18       12.252095     12.252293
  19       12.311011     12.311281
  20       12.536223     12.536498
  21       12.536246     12.536614
  22       12.743907     12.744204
  23       12.744561     12.745300
  24       13.314584     13.313789
 
  0.0000000E+00  0.2959184E+00  0.0000000E+00  0.3333333E-02
   1      -22.576016    -22.575924
   2      -10.390984    -10.390992
   3       -8.705025     -8.705028
   4       -8.116687     -8.116689
   5       -6.078064     -6.078053
   6       -6.078064     -6.078053
   7       -5.433993     -5.433985
   8        3.353610      3.353584
   9        3.353610      3.353584
  10        3.688232      3.688204
  11        5.637637      5.637649
  12        6.163153      6.163171
  13        6.163153      6.163171
  14        6.346099      6.346112
  15        7.224487      7.224495
  16        7.224488      7.224495
  17       12.021347     12.021546
  18       12.273761     12.273970
  19       12.306516     12.306773
  20       12.533133     12.533416
  21       12.533137     12.533797
  22       12.742413     12.742693
  23       12.742473     12.744439
  24       13.383117     13.365177
 
  0.0000000E+00  0.3061224E+00  0.0000000E+00  0.3333333E-02
   1      -22.573342    -22.573250
   2      -10.404357    -10.404365
   3       -8.718938     -8.718940
   4       -8.114729     -8.114731
   5       -6.072903     -6.072892
   6       -6.072903     -6.072892
   7       -5.408580     -5.408572
   8        3.342982      3.342956
   9        3.342982      3.342956
  10        3.707773      3.707745
  11        5.605170      5.605182
  12        6.160554      6.160572
  13        6.160554      6.160572
  14        6.277199      6.277209
  15        7.195671      7.195679
  16        7.195671      7.195679
  17       12.035120     12.035326
  18       12.293268     12.293483
  19       12.302151     12.302432
  20       12.530257     12.530542
  21       12.530442     12.531394
  22       12.741035     12.741315
  23       12.741123     12.741355
  24       13.443428     13.448029
 
  0.0000000E+00  0.3163265E+00  0.0000000E+00  0.3333333E-02
   1      -22.570733    -22.570641
   2      -10.417580    -10.417588
   3       -8.731749     -8.731752
   4       -8.112977     -8.112978
   5       -6.067851     -6.067840
   6       -6.067851     -6.067840
   7       -5.384295     -5.384287
   8        3.332355      3.332329
   9        3.332355      3.332329
  10        3.728439      3.728411
  11        5.573866      5.573877
  12        6.159244      6.159262
  13        6.159244      6.159262
  14        6.208888      6.208906
  15        7.166827      7.166834
  16        7.166827      7.166835
  17       12.047473     12.047695
  18       12.297968     12.298244
  19       12.310808     12.311040
  20       12.527595     12.527882
  21       12.527595     12.527898
  22       12.739735     12.740016
  23       12.739883     12.741076
  24       13.515413     13.510970
 
  0.0000000E+00  0.3265306E+00  0.0000000E+00  0.3333333E-02
   1      -22.568191    -22.568098
   2      -10.430742    -10.430749
   3       -8.743685     -8.743688
   4       -8.111116     -8.111117
   5       -6.062928     -6.062917
   6       -6.062928     -6.062917
   7       -5.361261     -5.361253
   8        3.321796      3.321770
   9        3.321796      3.321770
  10        3.750152      3.750124
  11        5.543816      5.543827
  12        6.141371      6.141379
  13        6.159200      6.159217
  14        6.159201      6.159218
  15        7.138048      7.138055
  16        7.138048      7.138055
  17       12.058530     12.058759
  18       12.293958     12.294229
  19       12.326529     12.326748
  20       12.525113     12.525398
  21       12.525164     12.525480
  22       12.738551     12.738830
  23       12.738562     12.739053
  24       13.554472     13.574858
 