LaAlO3 (band)                           
   1.00000000000000     
     3.809911    0.000000    0.000000
     0.000000    3.809911    0.000000
     0.000000    0.000000    3.809911
   La   Al   O 
     1     1     3
Direct
  0.500000  0.500000  0.500000
  0.000000  0.000000  0.000000
  0.000000  0.500000  0.000000
  0.000000  0.000000  0.500000
  0.500000  0.000000  0.000000
 
   28   28   28
 0.39343E-03 0.62182E-03 0.27776E-02 0.19444E-01 0.98508E-01 0.27167     0.44846     0.57156     0.65698     0.69214    
 0.66379     0.55166     0.35837     0.18817     0.13194     0.18817     0.35837     0.55166     0.66379     0.69214    
 0.65698     0.57156     0.44846     0.27167     0.98508E-01 0.19444E-01 0.27776E-02 0.62182E-03 0.62182E-03 0.81249E-03
 0.25770E-02 0.15080E-01 0.77086E-01 0.23353     0.41547     0.54844     0.64198     0.68513     0.66721     0.57437    
 0.40821     0.24945     0.19112     0.24945     0.40821     0.57437     0.66721     0.68513     0.64198     0.54844    
 0.41547     0.23353     0.77086E-01 0.15080E-01 0.25770E-02 0.81249E-03 0.27776E-02 0.25770E-02 0.36722E-02 0.11273E-01
 0.46179E-01 0.15294     0.32258     0.47498     0.59168     0.65932     0.66925     0.62149     0.52186     0.41374    
 0.36729     0.41374     0.52186     0.62149     0.66925     0.65932     0.59168     0.47498     0.32258     0.15294    
 0.46179E-01 0.11273E-01 0.36722E-02 0.25770E-02 0.19444E-01 0.15080E-01 0.11273E-01 0.14687E-01 0.32878E-01 0.88644E-01
 0.20431     0.35219     0.49417     0.60093     0.65130     0.65290     0.61968     0.57592     0.55556     0.57592    
 0.61968     0.65290     0.65130     0.60093     0.49417     0.35219     0.20431     0.88644E-01 0.32878E-01 0.14687E-01
 0.11273E-01 0.15080E-01 0.98508E-01 0.77086E-01 0.46179E-01 0.32878E-01 0.35842E-01 0.57682E-01 0.11247     0.21311    
 0.35051     0.49192     0.59199     0.64066     0.65502     0.65324     0.65048     0.65324     0.65502     0.64066    
 0.59199     0.49192     0.35051     0.21311     0.11247     0.57682E-01 0.35842E-01 0.32878E-01 0.46179E-01 0.77086E-01
 0.27167     0.23353     0.15294     0.88644E-01 0.57682E-01 0.50698E-01 0.64415E-01 0.10894     0.20015     0.33451    
 0.47138     0.56784     0.62079     0.64542     0.65248     0.64542     0.62079     0.56784     0.47138     0.33451    
 0.20015     0.10894     0.64415E-01 0.50698E-01 0.57682E-01 0.88644E-01 0.15294     0.23353     0.44846     0.41547    
 0.32258     0.20431     0.11247     0.64415E-01 0.48556E-01 0.56650E-01 0.95558E-01 0.17963     0.30204     0.42412    
 0.51214     0.56058     0.57571     0.56058     0.51214     0.42412     0.30204     0.17963     0.95558E-01 0.56650E-01
 0.48556E-01 0.64415E-01 0.11247     0.20431     0.32258     0.41547     0.57156     0.54844     0.47498     0.35219    
 0.21311     0.10894     0.56650E-01 0.40335E-01 0.47372E-01 0.81240E-01 0.15120     0.24855     0.34201     0.40384    
 0.42466     0.40384     0.34201     0.24855     0.15120     0.81240E-01 0.47372E-01 0.40335E-01 0.56650E-01 0.10894    
 0.21311     0.35219     0.47498     0.54844     0.65698     0.64198     0.59168     0.49417     0.35051     0.20015    
 0.95558E-01 0.47372E-01 0.33788E-01 0.39941E-01 0.65740E-01 0.11450     0.17706     0.22879     0.24823     0.22879    
 0.17706     0.11450     0.65740E-01 0.39941E-01 0.33788E-01 0.47372E-01 0.95558E-01 0.20015     0.35051     0.49417    
 0.59168     0.64198     0.69214     0.68513     0.65932     0.60093     0.49192     0.33451     0.17963     0.81240E-01
 0.39941E-01 0.29060E-01 0.33120E-01 0.48589E-01 0.73466E-01 0.98841E-01 0.10981     0.98841E-01 0.73466E-01 0.48589E-01
 0.33120E-01 0.29060E-01 0.39941E-01 0.81240E-01 0.17963     0.33451     0.49192     0.60093     0.65932     0.68513    
 0.66379     0.66721     0.66925     0.65130     0.59199     0.47138     0.30204     0.15120     0.65740E-01 0.33120E-01
 0.24521E-01 0.25589E-01 0.31371E-01 0.38456E-01 0.41835E-01 0.38456E-01 0.31371E-01 0.25589E-01 0.24521E-01 0.33120E-01
 0.65740E-01 0.15120     0.30204     0.47138     0.59199     0.65130     0.66925     0.66721     0.55166     0.57437    
 0.62149     0.65290     0.64066     0.56784     0.42412     0.24855     0.11450     0.48589E-01 0.25589E-01 0.18755E-01
 0.17348E-01 0.17824E-01 0.18293E-01 0.17824E-01 0.17348E-01 0.18755E-01 0.25589E-01 0.48589E-01 0.11450     0.24855    
 0.42412     0.56784     0.64066     0.65290     0.62149     0.57437     0.35837     0.40821     0.52186     0.61968    
 0.65502     0.62079     0.51214     0.34201     0.17706     0.73466E-01 0.31371E-01 0.17348E-01 0.12452E-01 0.10724E-01
 0.10328E-01 0.10724E-01 0.12452E-01 0.17348E-01 0.31371E-01 0.73466E-01 0.17706     0.34201     0.51214     0.62079    
 0.65502     0.61968     0.52186     0.40821     0.18817     0.24945     0.41374     0.57592     0.65324     0.64542    
 0.56058     0.40384     0.22879     0.98841E-01 0.38456E-01 0.17824E-01 0.10724E-01 0.81202E-02 0.74554E-02 0.81202E-02
 0.10724E-01 0.17824E-01 0.38456E-01 0.98841E-01 0.22879     0.40384     0.56058     0.64542     0.65324     0.57592    
 0.41374     0.24945     0.13194     0.19112     0.36729     0.55556     0.65048     0.65248     0.57571     0.42466    
 0.24823     0.10981     0.41835E-01 0.18293E-01 0.10328E-01 0.74554E-02 0.67225E-02 0.74554E-02 0.10328E-01 0.18293E-01
 0.41835E-01 0.10981     0.24823     0.42466     0.57571     0.65248     0.65048     0.55556     0.36729     0.19112    
 0.18817     0.24945     0.41374     0.57592     0.65324     0.64542     0.56058     0.40384     0.22879     0.98841E-01
 0.38456E-01 0.17824E-01 0.10724E-01 0.81202E-02 0.74554E-02 0.81202E-02 0.10724E-01 0.17824E-01 0.38456E-01 0.98841E-01
 0.22879     0.40384     0.56058     0.64542     0.65324     0.57592     0.41374     0.24945     0.35837     0.40821    
 0.52186     0.61968     0.65502     0.62079     0.51214     0.34201     0.17706     0.73466E-01 0.31371E-01 0.17348E-01
 0.12452E-01 0.10724E-01 0.10328E-01 0.10724E-01 0.12452E-01 0.17348E-01 0.31371E-01 0.73466E-01 0.17706     0.34201    
 0.51214     0.62079     0.65502     0.61968     0.52186     0.40821     0.55166     0.57437     0.62149     0.65290    
 0.64066     0.56784     0.42412     0.24855     0.11450     0.48589E-01 0.25589E-01 0.18755E-01 0.17348E-01 0.17824E-01
 0.18293E-01 0.17824E-01 0.17348E-01 0.18755E-01 0.25589E-01 0.48589E-01 0.11450     0.24855     0.42412     0.56784    
 0.64066     0.65290     0.62149     0.57437     0.66379     0.66721     0.66925     0.65130     0.59199     0.47138    
 0.30204     0.15120     0.65740E-01 0.33120E-01 0.24521E-01 0.25589E-01 0.31371E-01 0.38456E-01 0.41835E-01 0.38456E-01
 0.31371E-01 0.25589E-01 0.24521E-01 0.33120E-01 0.65740E-01 0.15120     0.30204     0.47138     0.59199     0.65130    
 0.66925     0.66721     0.69214     0.68513     0.65932     0.60093     0.49192     0.33451     0.17963     0.81240E-01
 0.39941E-01 0.29060E-01 0.33120E-01 0.48589E-01 0.73466E-01 0.98841E-01 0.10981     0.98841E-01 0.73466E-01 0.48589E-01
 0.33120E-01 0.29060E-01 0.39941E-01 0.81240E-01 0.17963     0.33451     0.49192     0.60093     0.65932     0.68513    
 0.65698     0.64198     0.59168     0.49417     0.35051     0.20015     0.95558E-01 0.47372E-01 0.33788E-01 0.39941E-01
 0.65740E-01 0.11450     0.17706     0.22879     0.24823     0.22879     0.17706     0.11450     0.65740E-01 0.39941E-01
 0.33788E-01 0.47372E-01 0.95558E-01 0.20015     0.35051     0.49417     0.59168     0.64198     0.57156     0.54844    
 0.47498     0.35219     0.21311     0.10894     0.56650E-01 0.40335E-01 0.47372E-01 0.81240E-01 0.15120     0.24855    
 0.34201     0.40384     0.42466     0.40384     0.34201     0.24855     0.15120     0.81240E-01 0.47372E-01 0.40335E-01
 0.56650E-01 0.10894     0.21311     0.35219     0.47498     0.54844     0.44846     0.41547     0.32258     0.20431    
 0.11247     0.64415E-01 0.48556E-01 0.56650E-01 0.95558E-01 0.17963     0.30204     0.42412     0.51214     0.56058    
 0.57571     0.56058     0.51214     0.42412     0.30204     0.17963     0.95558E-01 0.56650E-01 0.48556E-01 0.64415E-01
 0.11247     0.20431     0.32258     0.41547     0.27167     0.23353     0.15294     0.88644E-01 0.57682E-01 0.50698E-01
 0.64415E-01 0.10894     0.20015     0.33451     0.47138     0.56784     0.62079     0.64542     0.65248     0.64542    
 0.62079     0.56784     0.47138     0.33451     0.20015     0.10894     0.64415E-01 0.50698E-01 0.57682E-01 0.88644E-01
 0.15294     0.23353     0.98508E-01 0.77086E-01 0.46179E-01 0.32878E-01 0.35842E-01 0.57682E-01 0.11247     0.21311    
 0.35051     0.49192     0.59199     0.64066     0.65502     0.65324     0.65048     0.65324     0.65502     0.64066    
 0.59199     0.49192     0.35051     0.21311     0.11247     0.57682E-01 0.35842E-01 0.32878E-01 0.46179E-01 0.77086E-01
 0.19444E-01 0.15080E-01 0.11273E-01 0.14687E-01 0.32878E-01 0.88644E-01 0.20431     0.35219     0.49417     0.60093    
 0.65130     0.65290     0.61968     0.57592     0.55556     0.57592     0.61968     0.65290     0.65130     0.60093    
 0.49417     0.35219     0.20431     0.88644E-01 0.32878E-01 0.14687E-01 0.11273E-01 0.15080E-01 0.27776E-02 0.25770E-02
 0.36722E-02 0.11273E-01 0.46179E-01 0.15294     0.32258     0.47498     0.59168     0.65932     0.66925     0.62149    
 0.52186     0.41374     0.36729     0.41374     0.52186     0.62149     0.66925     0.65932     0.59168     0.47498    
 0.32258     0.15294     0.46179E-01 0.11273E-01 0.36722E-02 0.25770E-02 0.62182E-03 0.81249E-03 0.25770E-02 0.15080E-01
 0.77086E-01 0.23353     0.41547     0.54844     0.64198     0.68513     0.66721     0.57437     0.40821     0.24945    
 0.19112     0.24945     0.40821     0.57437     0.66721     0.68513     0.64198     0.54844     0.41547     0.23353    
 0.77086E-01 0.15080E-01 0.25770E-02 0.81249E-03 0.62182E-03 0.81249E-03 0.25770E-02 0.15080E-01 0.77086E-01 0.23353    
 0.41547     0.54844     0.64198     0.68513     0.66721     0.57437     0.40821     0.24945     0.19112     0.24945    
 0.40821     0.57437     0.66721     0.68513     0.64198     0.54844     0.41547     0.23353     0.77086E-01 0.15080E-01
 0.25770E-02 0.81249E-03 0.81249E-03 0.97445E-03 0.25043E-02 0.12595E-01 0.62994E-01 0.20282     0.38473     0.52551    
 0.62657     0.67751     0.66928     0.59337     0.45208     0.30917     0.25267     0.30917     0.45208     0.59337    
 0.66928     0.67751     0.62657     0.52551     0.38473     0.20282     0.62994E-01 0.12595E-01 0.25043E-02 0.97445E-03
 0.25770E-02 0.25043E-02 0.36109E-02 0.10494E-01 0.41243E-01 0.13715     0.29917     0.45349     0.57538     0.65004    
 0.66805     0.63209     0.54955     0.45754     0.41707     0.45754     0.54955     0.63209     0.66805     0.65004    
 0.57538     0.45349     0.29917     0.13715     0.41243E-01 0.10494E-01 0.36109E-02 0.25043E-02 0.15080E-01 0.12595E-01
 0.10494E-01 0.14219E-01 0.31418E-01 0.83006E-01 0.19138     0.33525     0.47793     0.58939     0.64621     0.65520    
 0.63087     0.59557     0.57882     0.59557     0.63087     0.65520     0.64621     0.58939     0.47793     0.33525    
 0.19138     0.83006E-01 0.31418E-01 0.14219E-01 0.10494E-01 0.12595E-01 0.77086E-01 0.62994E-01 0.41243E-01 0.31418E-01
 0.35023E-01 0.55831E-01 0.10735     0.20333     0.33737     0.47893     0.58302     0.63661     0.65556     0.65740    
 0.65608     0.65740     0.65556     0.63661     0.58302     0.47893     0.33737     0.20333     0.10735     0.55831E-01
 0.35023E-01 0.31418E-01 0.41243E-01 0.62994E-01 0.23353     0.20282     0.13715     0.83006E-01 0.55831E-01 0.49616E-01
 0.62635E-01 0.10499     0.19260     0.32341     0.45968     0.55862     0.61449     0.64111     0.64888     0.64111    
 0.61449     0.55862     0.45968     0.32341     0.19260     0.10499     0.62635E-01 0.49616E-01 0.55831E-01 0.83006E-01
 0.13715     0.20282     0.41547     0.38473     0.29917     0.19138     0.10735     0.62635E-01 0.47604E-01 0.55326E-01
 0.92545E-01 0.17316     0.29154     0.41153     0.49977     0.54912     0.56465     0.54912     0.49977     0.41153    
 0.29154     0.17316     0.92545E-01 0.55326E-01 0.47604E-01 0.62635E-01 0.10735     0.19138     0.29917     0.38473    
 0.54844     0.52551     0.45349     0.33525     0.20333     0.10499     0.55326E-01 0.39681E-01 0.46381E-01 0.78571E-01
 0.14481     0.23724     0.32670     0.38645     0.40671     0.38645     0.32670     0.23724     0.14481     0.78571E-01
 0.46381E-01 0.39681E-01 0.55326E-01 0.10499     0.20333     0.33525     0.45349     0.52551     0.64198     0.62657    
 0.57538     0.47793     0.33737     0.19260     0.92545E-01 0.46381E-01 0.33267E-01 0.38974E-01 0.62910E-01 0.10753    
 0.16427     0.21105     0.22865     0.21105     0.16427     0.10753     0.62910E-01 0.38974E-01 0.33267E-01 0.46381E-01
 0.92545E-01 0.19260     0.33737     0.47793     0.57538     0.62657     0.68513     0.67751     0.65004     0.58939    
 0.47893     0.32341     0.17316     0.78571E-01 0.38974E-01 0.28428E-01 0.31916E-01 0.45529E-01 0.66866E-01 0.88088E-01
 0.97125E-01 0.88088E-01 0.66866E-01 0.45529E-01 0.31916E-01 0.28428E-01 0.38974E-01 0.78571E-01 0.17316     0.32341    
 0.47893     0.58939     0.65004     0.67751     0.66721     0.66928     0.66805     0.64621     0.58302     0.45968    
 0.29154     0.14481     0.62910E-01 0.31916E-01 0.23613E-01 0.24211E-01 0.28873E-01 0.34508E-01 0.37145E-01 0.34508E-01
 0.28873E-01 0.24211E-01 0.23613E-01 0.31916E-01 0.62910E-01 0.14481     0.29154     0.45968     0.58302     0.64621    
 0.66805     0.66928     0.57437     0.59337     0.63209     0.65520     0.63661     0.55862     0.41153     0.23724    
 0.10753     0.45529E-01 0.24211E-01 0.17818E-01 0.16386E-01 0.16676E-01 0.17033E-01 0.16676E-01 0.16386E-01 0.17818E-01
 0.24211E-01 0.45529E-01 0.10753     0.23724     0.41153     0.55862     0.63661     0.65520     0.63209     0.59337    
 0.40821     0.45208     0.54955     0.63087     0.65556     0.61449     0.49977     0.32670     0.16427     0.66866E-01
 0.28873E-01 0.16386E-01 0.12046E-01 0.10548E-01 0.10219E-01 0.10548E-01 0.12046E-01 0.16386E-01 0.28873E-01 0.66866E-01
 0.16427     0.32670     0.49977     0.61449     0.65556     0.63087     0.54955     0.45208     0.24945     0.30917    
 0.45754     0.59557     0.65740     0.64111     0.54912     0.38645     0.21105     0.88088E-01 0.34508E-01 0.16676E-01
 0.10548E-01 0.83180E-02 0.77596E-02 0.83180E-02 0.10548E-01 0.16676E-01 0.34508E-01 0.88088E-01 0.21105     0.38645    
 0.54912     0.64111     0.65740     0.59557     0.45754     0.30917     0.19112     0.25267     0.41707     0.57882    
 0.65608     0.64888     0.56465     0.40671     0.22865     0.97125E-01 0.37145E-01 0.17033E-01 0.10219E-01 0.77596E-02
 0.71389E-02 0.77596E-02 0.10219E-01 0.17033E-01 0.37145E-01 0.97125E-01 0.22865     0.40671     0.56465     0.64888    
 0.65608     0.57882     0.41707     0.25267     0.24945     0.30917     0.45754     0.59557     0.65740     0.64111    
 0.54912     0.38645     0.21105     0.88088E-01 0.34508E-01 0.16676E-01 0.10548E-01 0.83180E-02 0.77596E-02 0.83180E-02
 0.10548E-01 0.16676E-01 0.34508E-01 0.88088E-01 0.21105     0.38645     0.54912     0.64111     0.65740     0.59557    
 0.45754     0.30917     0.40821     0.45208     0.54955     0.63087     0.65556     0.61449     0.49977     0.32670    
 0.16427     0.66866E-01 0.28873E-01 0.16386E-01 0.12046E-01 0.10548E-01 0.10219E-01 0.10548E-01 0.12046E-01 0.16386E-01
 0.28873E-01 0.66866E-01 0.16427     0.32670     0.49977     0.61449     0.65556     0.63087     0.54955     0.45208    
 0.57437     0.59337     0.63209     0.65520     0.63661     0.55862     0.41153     0.23724     0.10753     0.45529E-01
 0.24211E-01 0.17818E-01 0.16386E-01 0.16676E-01 0.17033E-01 0.16676E-01 0.16386E-01 0.17818E-01 0.24211E-01 0.45529E-01
 0.10753     0.23724     0.41153     0.55862     0.63661     0.65520     0.63209     0.59337     0.66721     0.66928    
 0.66805     0.64621     0.58302     0.45968     0.29154     0.14481     0.62910E-01 0.31916E-01 0.23613E-01 0.24211E-01
 0.28873E-01 0.34508E-01 0.37145E-01 0.34508E-01 0.28873E-01 0.24211E-01 0.23613E-01 0.31916E-01 0.62910E-01 0.14481    
 0.29154     0.45968     0.58302     0.64621     0.66805     0.66928     0.68513     0.67751     0.65004     0.58939    
 0.47893     0.32341     0.17316     0.78571E-01 0.38974E-01 0.28428E-01 0.31916E-01 0.45529E-01 0.66866E-01 0.88088E-01
 0.97125E-01 0.88088E-01 0.66866E-01 0.45529E-01 0.31916E-01 0.28428E-01 0.38974E-01 0.78571E-01 0.17316     0.32341    
 0.47893     0.58939     0.65004     0.67751     0.64198     0.62657     0.57538     0.47793     0.33737     0.19260    
 0.92545E-01 0.46381E-01 0.33267E-01 0.38974E-01 0.62910E-01 0.10753     0.16427     0.21105     0.22865     0.21105    
 0.16427     0.10753     0.62910E-01 0.38974E-01 0.33267E-01 0.46381E-01 0.92545E-01 0.19260     0.33737     0.47793    
 0.57538     0.62657     0.54844     0.52551     0.45349     0.33525     0.20333     0.10499     0.55326E-01 0.39681E-01
 0.46381E-01 0.78571E-01 0.14481     0.23724     0.32670     0.38645     0.40671     0.38645     0.32670     0.23724    
 0.14481     0.78571E-01 0.46381E-01 0.39681E-01 0.55326E-01 0.10499     0.20333     0.33525     0.45349     0.52551    
 0.41547     0.38473     0.29917     0.19138     0.10735     0.62635E-01 0.47604E-01 0.55326E-01 0.92545E-01 0.17316    
 0.29154     0.41153     0.49977     0.54912     0.56465     0.54912     0.49977     0.41153     0.29154     0.17316    
 0.92545E-01 0.55326E-01 0.47604E-01 0.62635E-01 0.10735     0.19138     0.29917     0.38473     0.23353     0.20282    
 0.13715     0.83006E-01 0.55831E-01 0.49616E-01 0.62635E-01 0.10499     0.19260     0.32341     0.45968     0.55862    
 0.61449     0.64111     0.64888     0.64111     0.61449     0.55862     0.45968     0.32341     0.19260     0.10499    
 0.62635E-01 0.49616E-01 0.55831E-01 0.83006E-01 0.13715     0.20282     0.77086E-01 0.62994E-01 0.41243E-01 0.31418E-01
 0.35023E-01 0.55831E-01 0.10735     0.20333     0.33737     0.47893     0.58302     0.63661     0.65556     0.65740    
 0.65608     0.65740     0.65556     0.63661     0.58302     0.47893     0.33737     0.20333     0.10735     0.55831E-01
 0.35023E-01 0.31418E-01 0.41243E-01 0.62994E-01 0.15080E-01 0.12595E-01 0.10494E-01 0.14219E-01 0.31418E-01 0.83006E-01
 0.19138     0.33525     0.47793     0.58939     0.64621     0.65520     0.63087     0.59557     0.57882     0.59557    
 0.63087     0.65520     0.64621     0.58939     0.47793     0.33525     0.19138     0.83006E-01 0.31418E-01 0.14219E-01
 0.10494E-01 0.12595E-01 0.25770E-02 0.25043E-02 0.36109E-02 0.10494E-01 0.41243E-01 0.13715     0.29917     0.45349    
 0.57538     0.65004     0.66805     0.63209     0.54955     0.45754     0.41707     0.45754     0.54955     0.63209    
 0.66805     0.65004     0.57538     0.45349     0.29917     0.13715     0.41243E-01 0.10494E-01 0.36109E-02 0.25043E-02
 0.81249E-03 0.97445E-03 0.25043E-02 0.12595E-01 0.62994E-01 0.20282     0.38473     0.52551     0.62657     0.67751    
 0.66928     0.59337     0.45208     0.30917     0.25267     0.30917     0.45208     0.59337     0.66928     0.67751    
 0.62657     0.52551     0.38473     0.20282     0.62994E-01 0.12595E-01 0.25043E-02 0.97445E-03 0.27776E-02 0.25770E-02
 0.36722E-02 0.11273E-01 0.46179E-01 0.15294     0.32258     0.47498     0.59168     0.65932     0.66925     0.62149    
 0.52186     0.41374     0.36729     0.41374     0.52186     0.62149     0.66925     0.65932     0.59168     0.47498    
 0.32258     0.15294     0.46179E-01 0.11273E-01 0.36722E-02 0.25770E-02 0.25770E-02 0.25043E-02 0.36109E-02 0.10494E-01
 0.41243E-01 0.13715     0.29917     0.45349     0.57538     0.65004     0.66805     0.63209     0.54955     0.45754    
 0.41707     0.45754     0.54955     0.63209     0.66805     0.65004     0.57538     0.45349     0.29917     0.13715    
 0.41243E-01 0.10494E-01 0.36109E-02 0.25043E-02 0.36722E-02 0.36109E-02 0.45996E-02 0.10241E-01 0.32579E-01 0.10163    
 0.23545     0.38808     0.52280     0.61801     0.65865     0.65160     0.60831     0.55479     0.53021     0.55479    
 0.60831     0.65160     0.65865     0.61801     0.52280     0.38808     0.23545     0.10163     0.32579E-01 0.10241E-01
 0.45996E-02 0.36109E-02 0.11273E-01 0.10494E-01 0.10241E-01 0.14177E-01 0.28690E-01 0.69157E-01 0.15625     0.28550    
 0.42780     0.55153     0.62657     0.65493     0.65203     0.63622     0.62774     0.63622     0.65203     0.65493    
 0.62657     0.55153     0.42780     0.28550     0.15625     0.69157E-01 0.28690E-01 0.14177E-01 0.10241E-01 0.10494E-01
 0.46179E-01 0.41243E-01 0.32579E-01 0.28690E-01 0.33208E-01 0.50795E-01 0.92989E-01 0.17516     0.29844     0.43863    
 0.55282     0.61996     0.65111     0.66213     0.66436     0.66213     0.65111     0.61996     0.55282     0.43863    
 0.29844     0.17516     0.92989E-01 0.50795E-01 0.33208E-01 0.28690E-01 0.32579E-01 0.41243E-01 0.15294     0.13715    
 0.10163     0.69157E-01 0.50795E-01 0.46418E-01 0.57380E-01 0.93483E-01 0.17056     0.29040     0.42282     0.52718    
 0.59096     0.62328     0.63308     0.62328     0.59096     0.52718     0.42282     0.29040     0.17056     0.93483E-01
 0.57380E-01 0.46418E-01 0.50795E-01 0.69157E-01 0.10163     0.13715     0.32258     0.29917     0.23545     0.15625    
 0.92989E-01 0.57380E-01 0.44714E-01 0.51344E-01 0.83605E-01 0.15398     0.25964     0.37133     0.45812     0.50904    
 0.52548     0.50904     0.45812     0.37133     0.25964     0.15398     0.83605E-01 0.51344E-01 0.44714E-01 0.57380E-01
 0.92989E-01 0.15625     0.23545     0.29917     0.47498     0.45349     0.38808     0.28550     0.17516     0.93483E-01
 0.51344E-01 0.37635E-01 0.43282E-01 0.70450E-01 0.12553     0.20260     0.27860     0.33061     0.34855     0.33061    
 0.27860     0.20260     0.12553     0.70450E-01 0.43282E-01 0.37635E-01 0.51344E-01 0.93483E-01 0.17516     0.28550    
 0.38808     0.45349     0.59168     0.57538     0.52280     0.42780     0.29844     0.17056     0.83605E-01 0.43282E-01
 0.31514E-01 0.35859E-01 0.54451E-01 0.87601E-01 0.12838     0.16146     0.17385     0.16146     0.12838     0.87601E-01
 0.54451E-01 0.35859E-01 0.31514E-01 0.43282E-01 0.83605E-01 0.17056     0.29844     0.42780     0.52280     0.57538    
 0.65932     0.65004     0.61801     0.55153     0.43863     0.29040     0.15398     0.70450E-01 0.35859E-01 0.26349E-01
 0.28373E-01 0.37483E-01 0.50852E-01 0.63266E-01 0.68337E-01 0.63266E-01 0.50852E-01 0.37483E-01 0.28373E-01 0.26349E-01
 0.35859E-01 0.70450E-01 0.15398     0.29040     0.43863     0.55153     0.61801     0.65004     0.66925     0.66805    
 0.65865     0.62657     0.55282     0.42282     0.25964     0.12553     0.54451E-01 0.28373E-01 0.21185E-01 0.21016E-01
 0.23669E-01 0.26834E-01 0.28259E-01 0.26834E-01 0.23669E-01 0.21016E-01 0.21185E-01 0.28373E-01 0.54451E-01 0.12553    
 0.25964     0.42282     0.55282     0.62657     0.65865     0.66805     0.62149     0.63209     0.65160     0.65493    
 0.61996     0.52718     0.37133     0.20260     0.87601E-01 0.37483E-01 0.21016E-01 0.16128E-01 0.15073E-01 0.15337E-01
 0.15619E-01 0.15337E-01 0.15073E-01 0.16128E-01 0.21016E-01 0.37483E-01 0.87601E-01 0.20260     0.37133     0.52718    
 0.61996     0.65493     0.65160     0.63209     0.52186     0.54955     0.60831     0.65203     0.65111     0.59096    
 0.45812     0.27860     0.12838     0.50852E-01 0.23669E-01 0.15073E-01 0.12284E-01 0.11537E-01 0.11455E-01 0.11537E-01
 0.12284E-01 0.15073E-01 0.23669E-01 0.50852E-01 0.12838     0.27860     0.45812     0.59096     0.65111     0.65203    
 0.60831     0.54955     0.41374     0.45754     0.55479     0.63622     0.66213     0.62328     0.50904     0.33061    
 0.16146     0.63266E-01 0.26834E-01 0.15337E-01 0.11537E-01 0.10352E-01 0.10135E-01 0.10352E-01 0.11537E-01 0.15337E-01
 0.26834E-01 0.63266E-01 0.16146     0.33061     0.50904     0.62328     0.66213     0.63622     0.55479     0.45754    
 0.36729     0.41707     0.53021     0.62774     0.66436     0.63308     0.52548     0.34855     0.17385     0.68337E-01
 0.28259E-01 0.15619E-01 0.11455E-01 0.10135E-01 0.98781E-02 0.10135E-01 0.11455E-01 0.15619E-01 0.28259E-01 0.68337E-01
 0.17385     0.34855     0.52548     0.63308     0.66436     0.62774     0.53021     0.41707     0.41374     0.45754    
 0.55479     0.63622     0.66213     0.62328     0.50904     0.33061     0.16146     0.63266E-01 0.26834E-01 0.15337E-01
 0.11537E-01 0.10352E-01 0.10135E-01 0.10352E-01 0.11537E-01 0.15337E-01 0.26834E-01 0.63266E-01 0.16146     0.33061    
 0.50904     0.62328     0.66213     0.63622     0.55479     0.45754     0.52186     0.54955     0.60831     0.65203    
 0.65111     0.59096     0.45812     0.27860     0.12838     0.50852E-01 0.23669E-01 0.15073E-01 0.12284E-01 0.11537E-01
 0.11455E-01 0.11537E-01 0.12284E-01 0.15073E-01 0.23669E-01 0.50852E-01 0.12838     0.27860     0.45812     0.59096    
 0.65111     0.65203     0.60831     0.54955     0.62149     0.63209     0.65160     0.65493     0.61996     0.52718    
 0.37133     0.20260     0.87601E-01 0.37483E-01 0.21016E-01 0.16128E-01 0.15073E-01 0.15337E-01 0.15619E-01 0.15337E-01
 0.15073E-01 0.16128E-01 0.21016E-01 0.37483E-01 0.87601E-01 0.20260     0.37133     0.52718     0.61996     0.65493    
 0.65160     0.63209     0.66925     0.66805     0.65865     0.62657     0.55282     0.42282     0.25964     0.12553    
 0.54451E-01 0.28373E-01 0.21185E-01 0.21016E-01 0.23669E-01 0.26834E-01 0.28259E-01 0.26834E-01 0.23669E-01 0.21016E-01
 0.21185E-01 0.28373E-01 0.54451E-01 0.12553     0.25964     0.42282     0.55282     0.62657     0.65865     0.66805    
 0.65932     0.65004     0.61801     0.55153     0.43863     0.29040     0.15398     0.70450E-01 0.35859E-01 0.26349E-01
 0.28373E-01 0.37483E-01 0.50852E-01 0.63266E-01 0.68337E-01 0.63266E-01 0.50852E-01 0.37483E-01 0.28373E-01 0.26349E-01
 0.35859E-01 0.70450E-01 0.15398     0.29040     0.43863     0.55153     0.61801     0.65004     0.59168     0.57538    
 0.52280     0.42780     0.29844     0.17056     0.83605E-01 0.43282E-01 0.31514E-01 0.35859E-01 0.54451E-01 0.87601E-01
 0.12838     0.16146     0.17385     0.16146     0.12838     0.87601E-01 0.54451E-01 0.35859E-01 0.31514E-01 0.43282E-01
 0.83605E-01 0.17056     0.29844     0.42780     0.52280     0.57538     0.47498     0.45349     0.38808     0.28550    
 0.17516     0.93483E-01 0.51344E-01 0.37635E-01 0.43282E-01 0.70450E-01 0.12553     0.20260     0.27860     0.33061    
 0.34855     0.33061     0.27860     0.20260     0.12553     0.70450E-01 0.43282E-01 0.37635E-01 0.51344E-01 0.93483E-01
 0.17516     0.28550     0.38808     0.45349     0.32258     0.29917     0.23545     0.15625     0.92989E-01 0.57380E-01
 0.44714E-01 0.51344E-01 0.83605E-01 0.15398     0.25964     0.37133     0.45812     0.50904     0.52548     0.50904    
 0.45812     0.37133     0.25964     0.15398     0.83605E-01 0.51344E-01 0.44714E-01 0.57380E-01 0.92989E-01 0.15625    
 0.23545     0.29917     0.15294     0.13715     0.10163     0.69157E-01 0.50795E-01 0.46418E-01 0.57380E-01 0.93483E-01
 0.17056     0.29040     0.42282     0.52718     0.59096     0.62328     0.63308     0.62328     0.59096     0.52718    
 0.42282     0.29040     0.17056     0.93483E-01 0.57380E-01 0.46418E-01 0.50795E-01 0.69157E-01 0.10163     0.13715    
 0.46179E-01 0.41243E-01 0.32579E-01 0.28690E-01 0.33208E-01 0.50795E-01 0.92989E-01 0.17516     0.29844     0.43863    
 0.55282     0.61996     0.65111     0.66213     0.66436     0.66213     0.65111     0.61996     0.55282     0.43863    
 0.29844     0.17516     0.92989E-01 0.50795E-01 0.33208E-01 0.28690E-01 0.32579E-01 0.41243E-01 0.11273E-01 0.10494E-01
 0.10241E-01 0.14177E-01 0.28690E-01 0.69157E-01 0.15625     0.28550     0.42780     0.55153     0.62657     0.65493    
 0.65203     0.63622     0.62774     0.63622     0.65203     0.65493     0.62657     0.55153     0.42780     0.28550    
 0.15625     0.69157E-01 0.28690E-01 0.14177E-01 0.10241E-01 0.10494E-01 0.36722E-02 0.36109E-02 0.45996E-02 0.10241E-01
 0.32579E-01 0.10163     0.23545     0.38808     0.52280     0.61801     0.65865     0.65160     0.60831     0.55479    
 0.53021     0.55479     0.60831     0.65160     0.65865     0.61801     0.52280     0.38808     0.23545     0.10163    
 0.32579E-01 0.10241E-01 0.45996E-02 0.36109E-02 0.25770E-02 0.25043E-02 0.36109E-02 0.10494E-01 0.41243E-01 0.13715    
 0.29917     0.45349     0.57538     0.65004     0.66805     0.63209     0.54955     0.45754     0.41707     0.45754    
 0.54955     0.63209     0.66805     0.65004     0.57538     0.45349     0.29917     0.13715     0.41243E-01 0.10494E-01
 0.36109E-02 0.25043E-02 0.19444E-01 0.15080E-01 0.11273E-01 0.14687E-01 0.32878E-01 0.88644E-01 0.20431     0.35219    
 0.49417     0.60093     0.65130     0.65290     0.61968     0.57592     0.55556     0.57592     0.61968     0.65290    
 0.65130     0.60093     0.49417     0.35219     0.20431     0.88644E-01 0.32878E-01 0.14687E-01 0.11273E-01 0.15080E-01
 0.15080E-01 0.12595E-01 0.10494E-01 0.14219E-01 0.31418E-01 0.83006E-01 0.19138     0.33525     0.47793     0.58939    
 0.64621     0.65520     0.63087     0.59557     0.57882     0.59557     0.63087     0.65520     0.64621     0.58939    
 0.47793     0.33525     0.19138     0.83006E-01 0.31418E-01 0.14219E-01 0.10494E-01 0.12595E-01 0.11273E-01 0.10494E-01
 0.10241E-01 0.14177E-01 0.28690E-01 0.69157E-01 0.15625     0.28550     0.42780     0.55153     0.62657     0.65493    
 0.65203     0.63622     0.62774     0.63622     0.65203     0.65493     0.62657     0.55153     0.42780     0.28550    
 0.15625     0.69157E-01 0.28690E-01 0.14177E-01 0.10241E-01 0.10494E-01 0.14687E-01 0.14219E-01 0.14177E-01 0.17396E-01