       N       E                     dE             d eps       ncg     rms          rms(c)
DAV:   1     0.334589802968E+03    0.33459E+03   -0.11842E+04 34584   0.191E+03
DAV:   2     0.445301913507E+02   -0.29006E+03   -0.24693E+03 33428   0.396E+02
DAV:   3    -0.283545989142E+02   -0.72885E+02   -0.59890E+02 36848   0.181E+02
DAV:   4    -0.380275526021E+02   -0.96730E+01   -0.93433E+01 47328   0.635E+01
DAV:   5    -0.385223790115E+02   -0.49483E+00   -0.49280E+00 51984   0.151E+01
RMM:   6    -0.385399291223E+02   -0.17550E-01   -0.17550E-01 43871   0.298E+00
RMM:   7    -0.385483004610E+02   -0.83713E-02   -0.85892E-02 53486   0.879E-01
RMM:   8    -0.385498198286E+02   -0.15194E-02   -0.16565E-02 50719   0.331E-01
RMM:   9    -0.385502302183E+02   -0.41039E-03   -0.45082E-03 47379   0.180E-01
RMM:  10    -0.385504343438E+02   -0.20413E-03   -0.21352E-03 44022   0.113E-01
RMM:  11    -0.385505321133E+02   -0.97770E-04   -0.10305E-03 41430   0.811E-02
RMM:  12    -0.385505954688E+02   -0.63355E-04   -0.66432E-04 38243   0.629E-02
RMM:  13    -0.385506309001E+02   -0.35431E-04   -0.37444E-04 36095   0.510E-02
RMM:  14    -0.385506547949E+02   -0.23895E-04   -0.25198E-04 33716   0.426E-02
RMM:  15    -0.385506698219E+02   -0.15027E-04   -0.15883E-04 31927   0.368E-02
RMM:  16    -0.385506799724E+02   -0.10150E-04   -0.10715E-04 29735   0.318E-02
RMM:  17    -0.385506867433E+02   -0.67708E-05   -0.71477E-05 28100   0.281E-02
   1 F= -.38550687E+02 E0= -.38550687E+02  d E =-.487796E-21  mag=    -0.0000
