 vasp.5.3.3 18Dez12 (build Jun 24 2015 15:58:02) complex                        
  
 executed on             LinuxIFC date 2023.04.24  15:35:34
 running on   32 total cores
 distrk:  each k-point on   32 cores,    1 groups
 distr:  one band on NCORES_PER_BAND=   1 cores,   32 groups


--------------------------------------------------------------------------------------------------------


 INCAR:
 POTCAR:    PAW_PBE La 06Sep2000                  
 POTCAR:    PAW_PBE Al 04Jan2001                  
 POTCAR:    PAW_PBE O 08Apr2002                   

 ----------------------------------------------------------------------------- 
|                                                                             |
|           W    W    AA    RRRRR   N    N  II  N    N   GGGG   !!!           |
|           W    W   A  A   R    R  NN   N  II  NN   N  G    G  !!!           |
|           W    W  A    A  R    R  N N  N  II  N N  N  G       !!!           |
|           W WW W  AAAAAA  RRRRR   N  N N  II  N  N N  G  GGG   !            |
|           WW  WW  A    A  R   R   N   NN  II  N   NN  G    G                |
|           W    W  A    A  R    R  N    N  II  N    N   GGGG   !!!           |
|                                                                             |
|      For optimal performance we recommend that you set                      |
|        NPAR = 4 - approx SQRT( number of cores)                             |
|      (number of cores/NPAR must be integer)                                 |
|      This setting will greatly improve the performance of VASP for DFT.     |
|      The default NPAR=number of cores might be grossly inefficient          |
|      on modern multi-core architectures or massively parallel machines.     |
|      Do your own testing.                                                   |
|      Unfortunately you need to use the default for hybrid, GW and RPA       |
|      calculations.                                                          |
|                                                                             |
 ----------------------------------------------------------------------------- 

 POTCAR:    PAW_PBE La 06Sep2000                  
   VRHFIN =La : [core=Kr4d]                                                     
   LEXCH  = PE                                                                  
   EATOM  =   865.9763 eV,   63.6475 Ry                                         
                                                                                
   TITEL  = PAW_PBE La 06Sep2000                                                
   LULTRA =        F    use ultrasoft PP ?                                      
   IUNSCR =        1    unscreen: 0-lin 1-nonlin 2-no                           
   RPACOR =    2.300    partial core radius                                     
   POMASS =  138.900; ZVAL   =   11.000    mass and valenz                      
   RCORE  =    2.800    outmost cutoff radius                                   
   RWIGS  =    2.900; RWIGS  =    1.535    wigner-seitz radius (au A)           
   ENMAX  =  219.292; ENMIN  =  164.469 eV                                      
   RCLOC  =    1.601    cutoff for local pot                                    
   LCOR   =        T    correct aug charges                                     
   LPAW   =        T    paw PP                                                  
   EAUG   =  583.575                                                            
   DEXC   =    0.000                                                            
   RMAX   =    2.853    core radius for proj-oper                               
   RAUG   =    1.300    factor for augmentation sphere                          
   RDEP   =    2.802    radius for radial grids                                 
   RDEPT  =    2.156    core radius for aug-charge                              
                                                                                
   Atomic configuration                                                         
   14 entries                                                                   
     n  l   j            E        occ.                                          
     1  0  0.50    -38741.0879   2.0000                                         
     2  0  0.50     -6166.6801   2.0000                                         
     2  1  1.50     -5526.1593   6.0000                                         
     3  0  0.50     -1319.0200   2.0000                                         
     3  1  1.50     -1114.5963   6.0000                                         
     3  2  2.50      -821.1793  10.0000                                         
     4  0  0.50      -266.3851   2.0000                                         
     4  1  1.50      -199.9276   6.0000                                         
     4  2  2.50      -103.8239  10.0000                                         
     5  0  0.50       -38.9172   2.0000                                         
     6  0  0.50        -3.6792   2.0000                                         
     5  1  1.50       -22.3948   6.0000                                         
     5  2  2.50        -3.0911   0.9999                                         
     4  3  2.50        -4.3603   0.0001                                         
   Description                                                                  
     l       E           TYP  RCUT    TYP  RCUT                                 
     0    -38.9171645     23  2.800                                             
     0     -3.6792381     23  2.800                                             
     1    -22.3948300     23  2.500                                             
     1     27.2116520     23  2.500                                             
     2     -3.0910934     23  2.500                                             
     2      1.0119135     23  2.500                                             
     3     -4.3602911     23  2.800                                             
     3     -5.7208737     23  2.800                                             
  local pseudopotential read in
  partial core-charges read in
  partial kinetic energy density read in
  atomic valenz-charges read in
  non local Contribution for L=           0  read in
    real space projection operators read in
  non local Contribution for L=           0  read in
    real space projection operators read in
  non local Contribution for L=           1  read in
    real space projection operators read in
  non local Contribution for L=           1  read in
    real space projection operators read in
  non local Contribution for L=           2  read in
    real space projection operators read in
  non local Contribution for L=           2  read in
    real space projection operators read in
  non local Contribution for L=           3  read in
    real space projection operators read in
  non local Contribution for L=           3  read in
    real space projection operators read in
    PAW grid and wavefunctions read in
 
   number of l-projection  operators is LMAX  =           8
   number of lm-projection operators is LMMAX =          32
 
 POTCAR:    PAW_PBE Al 04Jan2001                  
   VRHFIN =Al: s2p1                                                             
   LEXCH  = PE                                                                  
   EATOM  =    53.5387 eV,    3.9350 Ry                                         
                                                                                
   TITEL  = PAW_PBE Al 04Jan2001                                                
   LULTRA =        F    use ultrasoft PP ?                                      
   IUNSCR =        1    unscreen: 0-lin 1-nonlin 2-no                           
   RPACOR =    1.500    partial core radius                                     
   POMASS =   26.981; ZVAL   =    3.000    mass and valenz                      
   RCORE  =    1.900    outmost cutoff radius                                   
   RWIGS  =    2.650; RWIGS  =    1.402    wigner-seitz radius (au A)           
   ENMAX  =  240.300; ENMIN  =  180.225 eV                                      
   ICORE  =        2    local potential                                         
   LCOR   =        T    correct aug charges                                     
   LPAW   =        T    paw PP                                                  
   EAUG   =  291.052                                                            
   DEXC   =    0.000                                                            
   RMAX   =    1.939    core radius for proj-oper                               
   RAUG   =    1.300    factor for augmentation sphere                          
   RDEP   =    1.966    radius for radial grids                                 
   RDEPT  =    1.856    core radius for aug-charge                              
                                                                                
   Atomic configuration                                                         
    6 entries                                                                   
     n  l   j            E        occ.                                          
     1  0  0.50     -1511.1048   2.0000                                         
     2  0  0.50      -108.1629   2.0000                                         
     2  1  1.50       -69.6402   6.0000                                         
     3  0  0.50        -7.7528   2.0000                                         
     3  1  1.50        -2.7121   1.0000                                         
     3  2  2.50        -2.7212   0.0000                                         
   Description                                                                  
     l       E           TYP  RCUT    TYP  RCUT                                 
     0     -7.7528455     23  1.900                                             
     0     -3.3096929     23  1.900                                             
     1     -2.7120682     23  1.900                                             
     1     13.6058260     23  1.900                                             
     2     -2.7211652      7  1.900                                             
  local pseudopotential read in
  partial core-charges read in
  partial kinetic energy density read in
  atomic valenz-charges read in
  non local Contribution for L=           0  read in
    real space projection operators read in
  non local Contribution for L=           0  read in
    real space projection operators read in
  non local Contribution for L=           1  read in
    real space projection operators read in
  non local Contribution for L=           1  read in
    real space projection operators read in
    PAW grid and wavefunctions read in
 
   number of l-projection  operators is LMAX  =           4
   number of lm-projection operators is LMMAX =           8
 
 POTCAR:    PAW_PBE O 08Apr2002                   
   VRHFIN =O: s2p4                                                              
   LEXCH  = PE                                                                  
   EATOM  =   432.3788 eV,   31.7789 Ry                                         
                                                                                
   TITEL  = PAW_PBE O 08Apr2002                                                 
   LULTRA =        F    use ultrasoft PP ?                                      
   IUNSCR =        1    unscreen: 0-lin 1-nonlin 2-no                           
   RPACOR =    1.200    partial core radius                                     
   POMASS =   16.000; ZVAL   =    6.000    mass and valenz                      
   RCORE  =    1.520    outmost cutoff radius                                   
   RWIGS  =    1.550; RWIGS  =    0.820    wigner-seitz radius (au A)           
   ENMAX  =  400.000; ENMIN  =  300.000 eV                                      
   ICORE  =        2    local potential                                         
   LCOR   =        T    correct aug charges                                     
   LPAW   =        T    paw PP                                                  
   EAUG   =  605.392                                                            
   DEXC   =    0.000                                                            
   RMAX   =    1.553    core radius for proj-oper                               
   RAUG   =    1.300    factor for augmentation sphere                          
   RDEP   =    1.550    radius for radial grids                                 
   RDEPT  =    1.329    core radius for aug-charge                              
                                                                                
   Atomic configuration                                                         
    4 entries                                                                   
     n  l   j            E        occ.                                          
     1  0  0.50      -514.6923   2.0000                                         
     2  0  0.50       -23.9615   2.0000                                         
     2  1  0.50        -9.0305   4.0000                                         
     3  2  1.50        -9.5241   0.0000                                         
   Description                                                                  
     l       E           TYP  RCUT    TYP  RCUT                                 
     0    -23.9615318     23  1.200                                             
     0     -9.5240782     23  1.200                                             
     1     -9.0304911     23  1.520                                             
     1      8.1634956     23  1.520                                             
     2     -9.5240782      7  1.500                                             
  local pseudopotential read in
  partial core-charges read in
  partial kinetic energy density read in
  kinetic energy density of atom read in
  atomic valenz-charges read in
  non local Contribution for L=           0  read in
    real space projection operators read in
  non local Contribution for L=           0  read in
    real space projection operators read in
  non local Contribution for L=           1  read in
    real space projection operators read in
  non local Contribution for L=           1  read in
    real space projection operators read in
    PAW grid and wavefunctions read in
 
   number of l-projection  operators is LMAX  =           4
   number of lm-projection operators is LMMAX =           8
 
  PAW_PBE La 06Sep2000                  :
 energy of atom  1       EATOM= -865.9763
 kinetic energy error for atom=    0.0011 (will be added to EATOM!!)
  PAW_PBE Al 04Jan2001                  :
 energy of atom  2       EATOM=  -53.5387
 kinetic energy error for atom=    0.0003 (will be added to EATOM!!)
  PAW_PBE O 08Apr2002                   :
 energy of atom  3       EATOM= -432.3788
 kinetic energy error for atom=    0.0224 (will be added to EATOM!!)
 
 
 POSCAR: La1 Al1 O3                              
  positions in direct lattice
  No initial velocities read in
 exchange correlation table for  LEXCH =        8
   RHO(1)=    0.500       N(1)  =     2000
   RHO(2)=  100.500       N(2)  =     4000
 


--------------------------------------------------------------------------------------------------------


 ion  position               nearest neighbor table
   1  0.500  0.500  0.500-   4 2.67   4 2.67   5 2.67   3 2.67   5 2.67   3 2.67   5 2.67   5 2.67
                             3 2.67   4 2.67   3 2.67   4 2.67   2 3.28   2 3.28   2 3.28   2 3.28
   2  0.000  0.000  0.000-   3 1.89   4 1.89   5 1.89   4 1.89   3 1.89   5 1.89   1 3.28   1 3.28
                             1 3.28   1 3.28   1 3.28   1 3.28   1 3.28   1 3.28
   3  0.000  0.500  0.000-   2 1.89   2 1.89   1 2.67   1 2.67   1 2.67   1 2.67
   4  0.000  0.000  0.500-   2 1.89   2 1.89   1 2.67   1 2.67   1 2.67   1 2.67
   5  0.500  0.000  0.000-   2 1.89   2 1.89   1 2.67   1 2.67   1 2.67   1 2.67
 
  LATTYP: Found a simple cubic cell.
 ALAT       =     3.7829488000
  
  Lattice vectors:
  
 A1 = (   3.7829488000,   0.0000000000,   0.0000000000)
 A2 = (   0.0000000000,   3.7829488000,   0.0000000000)
 A3 = (   0.0000000000,   0.0000000000,   3.7829488000)


Analysis of symmetry for initial positions (statically):
=====================================================================
 Subroutine PRICEL returns:
 Original cell was already a primitive cell.
 

 Routine SETGRP: Setting up the symmetry group for a 
 simple cubic supercell.


 Subroutine GETGRP returns: Found 48 space group operations
 (whereof 48 operations were pure point group operations)
 out of a pool of 48 trial point group operations.


The static configuration has the point symmetry O_h .


Analysis of symmetry for dynamics (positions and initial velocities):
=====================================================================
 Subroutine PRICEL returns:
 Original cell was already a primitive cell.
 

 Routine SETGRP: Setting up the symmetry group for a 
 simple cubic supercell.


 Subroutine GETGRP returns: Found 48 space group operations
 (whereof 48 operations were pure point group operations)
 out of a pool of 48 trial point group operations.


The dynamic configuration has the point symmetry O_h .


Analysis of magnetic symmetry:
=====================================================================

 Subroutine MAGSYM returns: Found 48 space group operations
 (whereof 48 operations were pure point group operations)
 out of a pool of 48 trial space group operations
 (whereof 48 operations were pure point group operations)
 and found also     1 'primitive' translations


The magnetic configuration has the point symmetry O_h .


 irot  :   1
 --------------------------------------------------------------------
 isymop:   1   0   0
           0   1   0
           0   0   1

 gtrans:     0.0000000     0.0000000     0.0000000

 ptrans:     0.0000000     0.0000000     0.0000000
 rotmap:
 (   1->   1)  (   2->   2)  (   3->   3)  (   4->   4)  (   5->   5) 


 irot  :   2
 --------------------------------------------------------------------
 isymop:  -1   0   0
           0  -1   0
           0   0  -1

 gtrans:     0.0000000     0.0000000     0.0000000

 ptrans:     0.0000000     0.0000000     0.0000000
 rotmap:
 (   1->   1)  (   2->   2)  (   3->   3)  (   4->   4)  (   5->   5) 


 irot  :   3
 --------------------------------------------------------------------
 isymop:   0   0   1
           1   0   0
           0   1   0

 gtrans:     0.0000000     0.0000000     0.0000000

 ptrans:     0.0000000     0.0000000     0.0000000
 rotmap:
 (   1->   1)  (   2->   2)  (   3->   4)  (   4->   5)  (   5->   3) 


 irot  :   4
 --------------------------------------------------------------------
 isymop:   0   0  -1
          -1   0   0
           0  -1   0

 gtrans:     0.0000000     0.0000000     0.0000000

 ptrans:     0.0000000     0.0000000     0.0000000
 rotmap:
 (   1->   1)  (   2->   2)  (   3->   4)  (   4->   5)  (   5->   3) 


 irot  :   5
 --------------------------------------------------------------------
 isymop:   0   1   0
           0   0   1
           1   0   0

 gtrans:     0.0000000     0.0000000     0.0000000

 ptrans:     0.0000000     0.0000000     0.0000000
 rotmap:
 (   1->   1)  (   2->   2)  (   3->   5)  (   4->   3)  (   5->   4) 


 irot  :   6
 --------------------------------------------------------------------
 isymop:   0  -1   0
           0   0  -1
          -1   0   0

 gtrans:     0.0000000     0.0000000     0.0000000

 ptrans:     0.0000000     0.0000000     0.0000000
 rotmap:
 (   1->   1)  (   2->   2)  (   3->   5)  (   4->   3)  (   5->   4) 


 irot  :   7
 --------------------------------------------------------------------
 isymop:   0  -1   0
           1   0   0
           0   0   1

 gtrans:     0.0000000     0.0000000     0.0000000

 ptrans:     0.0000000     0.0000000     0.0000000
 rotmap:
 (   1->   1)  (   2->   2)  (   3->   5)  (   4->   4)  (   5->   3) 


 irot  :   8
 --------------------------------------------------------------------
 isymop:   0   1   0
          -1   0   0
           0   0  -1

 gtrans:     0.0000000     0.0000000     0.0000000

 ptrans:     0.0000000     0.0000000     0.0000000
 rotmap:
 (   1->   1)  (   2->   2)  (   3->   5)  (   4->   4)  (   5->   3) 


 irot  :   9
 --------------------------------------------------------------------
 isymop:  -1   0   0
           0   0   1
           0   1   0

 gtrans:     0.0000000     0.0000000     0.0000000

 ptrans:     0.0000000     0.0000000     0.0000000
 rotmap:
 (   1->   1)  (   2->   2)  (   3->   4)  (   4->   3)  (   5->   5) 


 irot  :  10
 --------------------------------------------------------------------
 isymop:   1   0   0
           0   0  -1
           0  -1   0

 gtrans:     0.0000000     0.0000000     0.0000000

 ptrans:     0.0000000     0.0000000     0.0000000
 rotmap:
 (   1->   1)  (   2->   2)  (   3->   4)  (   4->   3)  (   5->   5) 


 irot  :  11
 --------------------------------------------------------------------
 isymop:   0   0  -1
           0   1   0
           1   0   0

 gtrans:     0.0000000     0.0000000     0.0000000

 ptrans:     0.0000000     0.0000000     0.0000000
 rotmap:
 (   1->   1)  (   2->   2)  (   3->   3)  (   4->   5)  (   5->   4) 


 irot  :  12
 --------------------------------------------------------------------
 isymop:   0   0   1
           0  -1   0
          -1   0   0

 gtrans:     0.0000000     0.0000000     0.0000000

 ptrans:     0.0000000     0.0000000     0.0000000
 rotmap:
 (   1->   1)  (   2->   2)  (   3->   3)  (   4->   5)  (   5->   4) 


 irot  :  13
 --------------------------------------------------------------------
 isymop:  -1   0   0
           0  -1   0
           0   0   1

 gtrans:     0.0000000     0.0000000     0.0000000

 ptrans:     0.0000000     0.0000000     0.0000000
 rotmap:
 (   1->   1)  (   2->   2)  (   3->   3)  (   4->   4)  (   5->   5) 


 irot  :  14
 --------------------------------------------------------------------
 isymop:   1   0   0
           0   1   0
           0   0  -1

 gtrans:     0.0000000     0.0000000     0.0000000

 ptrans:     0.0000000     0.0000000     0.0000000
 rotmap:
 (   1->   1)  (   2->   2)  (   3->   3)  (   4->   4)  (   5->   5) 


 irot  :  15
 --------------------------------------------------------------------
 isymop:   0   0  -1
          -1   0   0
           0   1   0

 gtrans:     0.0000000     0.0000000     0.0000000

 ptrans:     0.0000000     0.0000000     0.0000000
 rotmap:
 (   1->   1)  (   2->   2)  (   3->   4)  (   4->   5)  (   5->   3) 


 irot  :  16
 --------------------------------------------------------------------
 isymop:   0   0   1
           1   0   0
           0  -1   0

 gtrans:     0.0000000     0.0000000     0.0000000

 ptrans:     0.0000000     0.0000000     0.0000000
 rotmap:
 (   1->   1)  (   2->   2)  (   3->   4)  (   4->   5)  (   5->   3) 


 irot  :  17
 --------------------------------------------------------------------
 isymop:   0  -1   0
           0   0  -1
           1   0   0

 gtrans:     0.0000000     0.0000000     0.0000000

 ptrans:     0.0000000     0.0000000     0.0000000
 rotmap:
 (   1->   1)  (   2->   2)  (   3->   5)  (   4->   3)  (   5->   4) 


 irot  :  18
 --------------------------------------------------------------------
 isymop:   0   1   0
           0   0   1
          -1   0   0

 gtrans:     0.0000000     0.0000000     0.0000000

 ptrans:     0.0000000     0.0000000     0.0000000
 rotmap:
 (   1->   1)  (   2->   2)  (   3->   5)  (   4->   3)  (   5->   4) 


 irot  :  19
 --------------------------------------------------------------------
 isymop:   0   1   0
          -1   0   0
           0   0   1

 gtrans:     0.0000000     0.0000000     0.0000000

 ptrans:     0.0000000     0.0000000     0.0000000
 rotmap:
 (   1->   1)  (   2->   2)  (   3->   5)  (   4->   4)  (   5->   3) 


 irot  :  20
 --------------------------------------------------------------------
 isymop:   0  -1   0
           1   0   0
           0   0  -1

 gtrans:     0.0000000     0.0000000     0.0000000

 ptrans:     0.0000000     0.0000000     0.0000000
 rotmap:
 (   1->   1)  (   2->   2)  (   3->   5)  (   4->   4)  (   5->   3) 


 irot  :  21
 --------------------------------------------------------------------
 isymop:   1   0   0
           0   0  -1
           0   1   0

 gtrans:     0.0000000     0.0000000     0.0000000

 ptrans:     0.0000000     0.0000000     0.0000000
 rotmap:
 (   1->   1)  (   2->   2)  (   3->   4)  (   4->   3)  (   5->   5) 


 irot  :  22
 --------------------------------------------------------------------
 isymop:  -1   0   0
           0   0   1
           0  -1   0

 gtrans:     0.0000000     0.0000000     0.0000000

 ptrans:     0.0000000     0.0000000     0.0000000
 rotmap:
 (   1->   1)  (   2->   2)  (   3->   4)  (   4->   3)  (   5->   5) 


 irot  :  23
 --------------------------------------------------------------------
 isymop:   0   0   1
           0  -1   0
           1   0   0

 gtrans:     0.0000000     0.0000000     0.0000000

 ptrans:     0.0000000     0.0000000     0.0000000
 rotmap:
 (   1->   1)  (   2->   2)  (   3->   3)  (   4->   5)  (   5->   4) 


 irot  :  24
 --------------------------------------------------------------------
 isymop:   0   0  -1
           0   1   0
          -1   0   0

 gtrans:     0.0000000     0.0000000     0.0000000

 ptrans:     0.0000000     0.0000000     0.0000000
 rotmap:
 (   1->   1)  (   2->   2)  (   3->   3)  (   4->   5)  (   5->   4) 


 irot  :  25
 --------------------------------------------------------------------
 isymop:   0   0   1
          -1   0   0
           0  -1   0

 gtrans:     0.0000000     0.0000000     0.0000000

 ptrans:     0.0000000     0.0000000     0.0000000
 rotmap:
 (   1->   1)  (   2->   2)  (   3->   4)  (   4->   5)  (   5->   3) 


 irot  :  26
 --------------------------------------------------------------------
 isymop:   0   0  -1
           1   0   0
           0   1   0

 gtrans:     0.0000000     0.0000000     0.0000000

 ptrans:     0.0000000     0.0000000     0.0000000
 rotmap:
 (   1->   1)  (   2->   2)  (   3->   4)  (   4->   5)  (   5->   3) 


 irot  :  27
 --------------------------------------------------------------------
 isymop:   0   1   0
           0   0  -1
          -1   0   0

 gtrans:     0.0000000     0.0000000     0.0000000

 ptrans:     0.0000000     0.0000000     0.0000000
 rotmap:
 (   1->   1)  (   2->   2)  (   3->   5)  (   4->   3)  (   5->   4) 


 irot  :  28
 --------------------------------------------------------------------
 isymop:   0  -1   0
           0   0   1
           1   0   0

 gtrans:     0.0000000     0.0000000     0.0000000

 ptrans:     0.0000000     0.0000000     0.0000000
 rotmap:
 (   1->   1)  (   2->   2)  (   3->   5)  (   4->   3)  (   5->   4) 


 irot  :  29
 --------------------------------------------------------------------
 isymop:   1   0   0
           0  -1   0
           0   0  -1

 gtrans:     0.0000000     0.0000000     0.0000000

 ptrans:     0.0000000     0.0000000     0.0000000
 rotmap:
 (   1->   1)  (   2->   2)  (   3->   3)  (   4->   4)  (   5->   5) 


 irot  :  30
 --------------------------------------------------------------------
 isymop:  -1   0   0
           0   1   0
           0   0   1

 gtrans:     0.0000000     0.0000000     0.0000000

 ptrans:     0.0000000     0.0000000     0.0000000
 rotmap:
 (   1->   1)  (   2->   2)  (   3->   3)  (   4->   4)  (   5->   5) 


 irot  :  31
 --------------------------------------------------------------------
 isymop:   0   0   1
           0   1   0
          -1   0   0

 gtrans:     0.0000000     0.0000000     0.0000000

 ptrans:     0.0000000     0.0000000     0.0000000
 rotmap:
 (   1->   1)  (   2->   2)  (   3->   3)  (   4->   5)  (   5->   4) 


 irot  :  32
 --------------------------------------------------------------------
 isymop:   0   0  -1
           0  -1   0
           1   0   0

 gtrans:     0.0000000     0.0000000     0.0000000

 ptrans:     0.0000000     0.0000000     0.0000000
 rotmap:
 (   1->   1)  (   2->   2)  (   3->   3)  (   4->   5)  (   5->   4) 


 irot  :  33
 --------------------------------------------------------------------
 isymop:   0   1   0
           1   0   0
           0   0  -1

 gtrans:     0.0000000     0.0000000     0.0000000

 ptrans:     0.0000000     0.0000000     0.0000000
 rotmap:
 (   1->   1)  (   2->   2)  (   3->   5)  (   4->   4)  (   5->   3) 


 irot  :  34
 --------------------------------------------------------------------
 isymop:   0  -1   0
          -1   0   0
           0   0   1

 gtrans:     0.0000000     0.0000000     0.0000000

 ptrans:     0.0000000     0.0000000     0.0000000
 rotmap:
 (   1->   1)  (   2->   2)  (   3->   5)  (   4->   4)  (   5->   3) 


 irot  :  35
 --------------------------------------------------------------------
 isymop:   1   0   0
           0   0   1
           0  -1   0

 gtrans:     0.0000000     0.0000000     0.0000000

 ptrans:     0.0000000     0.0000000     0.0000000
 rotmap:
 (   1->   1)  (   2->   2)  (   3->   4)  (   4->   3)  (   5->   5) 


 irot  :  36
 --------------------------------------------------------------------
 isymop:  -1   0   0
           0   0  -1
           0   1   0

 gtrans:     0.0000000     0.0000000     0.0000000

 ptrans:     0.0000000     0.0000000     0.0000000
 rotmap:
 (   1->   1)  (   2->   2)  (   3->   4)  (   4->   3)  (   5->   5) 


 irot  :  37
 --------------------------------------------------------------------
 isymop:   0  -1   0
           0   0   1
          -1   0   0

 gtrans:     0.0000000     0.0000000     0.0000000

 ptrans:     0.0000000     0.0000000     0.0000000
 rotmap:
 (   1->   1)  (   2->   2)  (   3->   5)  (   4->   3)  (   5->   4) 


 irot  :  38
 --------------------------------------------------------------------
 isymop:   0   1   0
           0   0  -1
           1   0   0

 gtrans:     0.0000000     0.0000000     0.0000000

 ptrans:     0.0000000     0.0000000     0.0000000
 rotmap:
 (   1->   1)  (   2->   2)  (   3->   5)  (   4->   3)  (   5->   4) 


 irot  :  39
 --------------------------------------------------------------------
 isymop:  -1   0   0
           0   1   0
           0   0  -1

 gtrans:     0.0000000     0.0000000     0.0000000

 ptrans:     0.0000000     0.0000000     0.0000000
 rotmap:
 (   1->   1)  (   2->   2)  (   3->   3)  (   4->   4)  (   5->   5) 


 irot  :  40
 --------------------------------------------------------------------
 isymop:   1   0   0
           0  -1   0
           0   0   1

 gtrans:     0.0000000     0.0000000     0.0000000

 ptrans:     0.0000000     0.0000000     0.0000000
 rotmap:
 (   1->   1)  (   2->   2)  (   3->   3)  (   4->   4)  (   5->   5) 


 irot  :  41
 --------------------------------------------------------------------
 isymop:   0   0  -1
           1   0   0
           0  -1   0

 gtrans:     0.0000000     0.0000000     0.0000000

 ptrans:     0.0000000     0.0000000     0.0000000
 rotmap:
 (   1->   1)  (   2->   2)  (   3->   4)  (   4->   5)  (   5->   3) 


 irot  :  42
 --------------------------------------------------------------------
 isymop:   0   0   1
          -1   0   0
           0   1   0

 gtrans:     0.0000000     0.0000000     0.0000000

 ptrans:     0.0000000     0.0000000     0.0000000
 rotmap:
 (   1->   1)  (   2->   2)  (   3->   4)  (   4->   5)  (   5->   3) 


 irot  :  43
 --------------------------------------------------------------------
 isymop:  -1   0   0
           0   0  -1
           0  -1   0

 gtrans:     0.0000000     0.0000000     0.0000000

 ptrans:     0.0000000     0.0000000     0.0000000
 rotmap:
 (   1->   1)  (   2->   2)  (   3->   4)  (   4->   3)  (   5->   5) 


 irot  :  44
 --------------------------------------------------------------------
 isymop:   1   0   0
           0   0   1
           0   1   0

 gtrans:     0.0000000     0.0000000     0.0000000

 ptrans:     0.0000000     0.0000000     0.0000000
 rotmap:
 (   1->   1)  (   2->   2)  (   3->   4)  (   4->   3)  (   5->   5) 


 irot  :  45
 --------------------------------------------------------------------
 isymop:   0  -1   0
          -1   0   0
           0   0  -1

 gtrans:     0.0000000     0.0000000     0.0000000

 ptrans:     0.0000000     0.0000000     0.0000000
 rotmap:
 (   1->   1)  (   2->   2)  (   3->   5)  (   4->   4)  (   5->   3) 


 irot  :  46
 --------------------------------------------------------------------
 isymop:   0   1   0
           1   0   0
           0   0   1

 gtrans:     0.0000000     0.0000000     0.0000000

 ptrans:     0.0000000     0.0000000     0.0000000
 rotmap:
 (   1->   1)  (   2->   2)  (   3->   5)  (   4->   4)  (   5->   3) 


 irot  :  47
 --------------------------------------------------------------------
 isymop:   0   0  -1
           0  -1   0
          -1   0   0

 gtrans:     0.0000000     0.0000000     0.0000000

 ptrans:     0.0000000     0.0000000     0.0000000
 rotmap:
 (   1->   1)  (   2->   2)  (   3->   3)  (   4->   5)  (   5->   4) 


 irot  :  48
 --------------------------------------------------------------------
 isymop:   0   0   1
           0   1   0
           1   0   0

 gtrans:     0.0000000     0.0000000     0.0000000

 ptrans:     0.0000000     0.0000000     0.0000000
 rotmap:
 (   1->   1)  (   2->   2)  (   3->   3)  (   4->   5)  (   5->   4) 
 
 
 KPOINTS: Automatic mesh                          

Automatic generation of k-mesh.
Space group operators:
 irot       det(A)        alpha          n_x          n_y          n_z        tau_x        tau_y        tau_z
    1     1.000000     0.000000     1.000000     0.000000     0.000000     0.000000     0.000000     0.000000
    2    -1.000000     0.000000     1.000000     0.000000     0.000000     0.000000     0.000000     0.000000
    3     1.000000   120.000000    -0.577350    -0.577350    -0.577350     0.000000     0.000000     0.000000
    4    -1.000000   120.000000    -0.577350    -0.577350    -0.577350     0.000000     0.000000     0.000000
    5     1.000000   120.000000     0.577350     0.577350     0.577350     0.000000     0.000000     0.000000
    6    -1.000000   120.000000     0.577350     0.577350     0.577350     0.000000     0.000000     0.000000
    7     1.000000    90.000000     0.000000     0.000000    -1.000000     0.000000     0.000000     0.000000
    8    -1.000000    90.000000     0.000000     0.000000    -1.000000     0.000000     0.000000     0.000000
    9     1.000000   180.000000     0.000000    -0.707107    -0.707107     0.000000     0.000000     0.000000
   10    -1.000000   180.000000     0.000000    -0.707107    -0.707107     0.000000     0.000000     0.000000
   11     1.000000    90.000000     0.000000     1.000000     0.000000     0.000000     0.000000     0.000000
   12    -1.000000    90.000000     0.000000     1.000000     0.000000     0.000000     0.000000     0.000000
   13     1.000000   180.000000    -0.000000    -0.000000     1.000000     0.000000     0.000000     0.000000
   14    -1.000000   180.000000    -0.000000    -0.000000     1.000000     0.000000     0.000000     0.000000
   15     1.000000   120.000000    -0.577350     0.577350     0.577350     0.000000     0.000000     0.000000
   16    -1.000000   120.000000    -0.577350     0.577350     0.577350     0.000000     0.000000     0.000000
   17     1.000000   120.000000    -0.577350     0.577350    -0.577350     0.000000     0.000000     0.000000
   18    -1.000000   120.000000    -0.577350     0.577350    -0.577350     0.000000     0.000000     0.000000
   19     1.000000    90.000000    -0.000000    -0.000000     1.000000     0.000000     0.000000     0.000000
   20    -1.000000    90.000000    -0.000000    -0.000000     1.000000     0.000000     0.000000     0.000000
   21     1.000000    90.000000    -1.000000     0.000000    -0.000000     0.000000     0.000000     0.000000
   22    -1.000000    90.000000    -1.000000     0.000000    -0.000000     0.000000     0.000000     0.000000
   23     1.000000   180.000000    -0.707107     0.000000    -0.707107     0.000000     0.000000     0.000000
   24    -1.000000   180.000000    -0.707107     0.000000    -0.707107     0.000000     0.000000     0.000000
   25     1.000000   120.000000     0.577350    -0.577350     0.577350     0.000000     0.000000     0.000000
   26    -1.000000   120.000000     0.577350    -0.577350     0.577350     0.000000     0.000000     0.000000
   27     1.000000   120.000000    -0.577350    -0.577350     0.577350     0.000000     0.000000     0.000000
   28    -1.000000   120.000000    -0.577350    -0.577350     0.577350     0.000000     0.000000     0.000000
   29     1.000000   180.000000     1.000000    -0.000000     0.000000     0.000000     0.000000     0.000000
   30    -1.000000   180.000000     1.000000    -0.000000     0.000000     0.000000     0.000000     0.000000
   31     1.000000    90.000000    -0.000000    -1.000000     0.000000     0.000000     0.000000     0.000000
   32    -1.000000    90.000000    -0.000000    -1.000000     0.000000     0.000000     0.000000     0.000000
   33     1.000000   180.000000     0.707107     0.707107     0.000000     0.000000     0.000000     0.000000
   34    -1.000000   180.000000     0.707107     0.707107     0.000000     0.000000     0.000000     0.000000
   35     1.000000    90.000000     1.000000    -0.000000    -0.000000     0.000000     0.000000     0.000000
   36    -1.000000    90.000000     1.000000    -0.000000    -0.000000     0.000000     0.000000     0.000000
   37     1.000000   120.000000     0.577350    -0.577350    -0.577350     0.000000     0.000000     0.000000
   38    -1.000000   120.000000     0.577350    -0.577350    -0.577350     0.000000     0.000000     0.000000
   39     1.000000   180.000000     0.000000     1.000000     0.000000     0.000000     0.000000     0.000000
   40    -1.000000   180.000000     0.000000     1.000000     0.000000     0.000000     0.000000     0.000000
   41     1.000000   120.000000     0.577350     0.577350    -0.577350     0.000000     0.000000     0.000000
   42    -1.000000   120.000000     0.577350     0.577350    -0.577350     0.000000     0.000000     0.000000
   43     1.000000   180.000000    -0.000000    -0.707107     0.707107     0.000000     0.000000     0.000000
   44    -1.000000   180.000000    -0.000000    -0.707107     0.707107     0.000000     0.000000     0.000000
   45     1.000000   180.000000     0.707107    -0.707107     0.000000     0.000000     0.000000     0.000000
   46    -1.000000   180.000000     0.707107    -0.707107     0.000000     0.000000     0.000000     0.000000
   47     1.000000   180.000000     0.707107    -0.000000    -0.707107     0.000000     0.000000     0.000000
   48    -1.000000   180.000000     0.707107    -0.000000    -0.707107     0.000000     0.000000     0.000000
 
 Subroutine IBZKPT returns following result:
 ===========================================
 
 Found     35 irreducible k-points:
 
 Following reciprocal coordinates:
            Coordinates               Weight
  0.000000  0.000000  0.000000      1.000000
  0.125000  0.000000  0.000000      6.000000
  0.250000  0.000000  0.000000      6.000000
  0.375000  0.000000  0.000000      6.000000
  0.500000  0.000000  0.000000      3.000000
  0.125000  0.125000  0.000000     12.000000
  0.250000  0.125000  0.000000     24.000000
  0.375000  0.125000  0.000000     24.000000
  0.500000  0.125000  0.000000     12.000000
  0.250000  0.250000  0.000000     12.000000
  0.375000  0.250000  0.000000     24.000000
  0.500000  0.250000  0.000000     12.000000
  0.375000  0.375000  0.000000     12.000000
  0.500000  0.375000  0.000000     12.000000
  0.500000  0.500000  0.000000      3.000000
  0.125000  0.125000  0.125000      8.000000
  0.250000  0.125000  0.125000     24.000000
  0.375000  0.125000  0.125000     24.000000
  0.500000  0.125000  0.125000     12.000000
  0.250000  0.250000  0.125000     24.000000
  0.375000  0.250000  0.125000     48.000000
  0.500000  0.250000  0.125000     24.000000
  0.375000  0.375000  0.125000     24.000000
  0.500000  0.375000  0.125000     24.000000
  0.500000  0.500000  0.125000      6.000000
  0.250000  0.250000  0.250000      8.000000
  0.375000  0.250000  0.250000     24.000000
  0.500000  0.250000  0.250000     12.000000
  0.375000  0.375000  0.250000     24.000000
  0.500000  0.375000  0.250000     24.000000
  0.500000  0.500000  0.250000      6.000000
  0.375000  0.375000  0.375000      8.000000
  0.500000  0.375000  0.375000     12.000000
  0.500000  0.500000  0.375000      6.000000
  0.500000  0.500000  0.500000      1.000000
 
 Following cartesian coordinates:
            Coordinates               Weight
  0.000000  0.000000  0.000000      1.000000
  0.033043 -0.000000  0.000000      6.000000
  0.066086 -0.000000  0.000000      6.000000
  0.099129 -0.000000  0.000000      6.000000
  0.132172 -0.000000  0.000000      3.000000
  0.033043  0.033043  0.000000     12.000000
  0.066086  0.033043  0.000000     24.000000
  0.099129  0.033043  0.000000     24.000000
  0.132172  0.033043  0.000000     12.000000
  0.066086  0.066086  0.000000     12.000000
  0.099129  0.066086  0.000000     24.000000
  0.132172  0.066086  0.000000     12.000000
  0.099129  0.099129  0.000000     12.000000
  0.132172  0.099129  0.000000     12.000000
  0.132172  0.132172  0.000000      3.000000
  0.033043  0.033043  0.033043      8.000000
  0.066086  0.033043  0.033043     24.000000
  0.099129  0.033043  0.033043     24.000000
  0.132172  0.033043  0.033043     12.000000
  0.066086  0.066086  0.033043     24.000000
  0.099129  0.066086  0.033043     48.000000
  0.132172  0.066086  0.033043     24.000000
  0.099129  0.099129  0.033043     24.000000
  0.132172  0.099129  0.033043     24.000000
  0.132172  0.132172  0.033043      6.000000
  0.066086  0.066086  0.066086      8.000000
  0.099129  0.066086  0.066086     24.000000
  0.132172  0.066086  0.066086     12.000000
  0.099129  0.099129  0.066086     24.000000
  0.132172  0.099129  0.066086     24.000000
  0.132172  0.132172  0.066086      6.000000
  0.099129  0.099129  0.099129      8.000000
  0.132172  0.099129  0.099129     12.000000
  0.132172  0.132172  0.099129      6.000000
  0.132172  0.132172  0.132172      1.000000
 


--------------------------------------------------------------------------------------------------------




 Dimension of arrays:
   k-points           NKPTS =     35   k-points in BZ     NKDIM =     35   number of bands    NBANDS=     32
   number of dos      NEDOS =    301   number of ions     NIONS =      5
   non local maximal  LDIM  =      8   non local SUM 2l+1 LMDIM =     32
   total plane-waves  NPLWV =  21952
   max r-space proj   IRMAX =      1   max aug-charges    IRDMAX=  21385
   dimension x,y,z NGX =    28 NGY =   28 NGZ =   28
   dimension x,y,z NGXF=    56 NGYF=   56 NGZF=   56
   support grid    NGXF=    56 NGYF=   56 NGZF=   56
   ions per type =               1   1   3
 NGX,Y,Z   is equivalent  to a cutoff of  12.30, 12.30, 12.30 a.u.
 NGXF,Y,Z  is equivalent  to a cutoff of  24.61, 24.61, 24.61 a.u.


 I would recommend the setting:
   dimension x,y,z NGX =    28 NGY =   28 NGZ =   28
 SYSTEM =  LaAlO3 (relax)                          
 POSCAR =  La1 Al1 O3                              

 Startparameter for this run:
   NWRITE =      2    write-flag & timer
   PREC   = accura    normal or accurate (medium, high low for compatibility)
   ISTART =      0    job   : 0-new  1-cont  2-samecut
   ICHARG =      2    charge: 1-file 2-atom 10-const
   ISPIN  =      2    spin polarized calculation?
   LNONCOLLINEAR =      F non collinear calculations
   LSORBIT =      F    spin-orbit coupling
   INIWAV =      1    electr: 0-lowe 1-rand  2-diag
   LASPH  =      T    aspherical Exc in radial PAW
   METAGGA=      F    non-selfconsistent MetaGGA calc.

 Electronic Relaxation 1
   ENCUT  =  500.0 eV  36.75 Ry    6.06 a.u.   6.90  6.90  6.90*2*pi/ulx,y,z
   ENINI  =  500.0     initial cutoff
   ENAUG  =  605.4 eV  augmentation charge cutoff
   NELM   =    100;   NELMIN=  2; NELMDL= -5     # of ELM steps 
   EDIFF  = 0.1E-04   stopping-criterion for ELM
   LREAL  =      F    real-space projection
   NLSPLINE    = F    spline interpolate recip. space projectors
   LCOMPAT=      F    compatible to vasp.4.4
   GGA_COMPAT  = T    GGA compatible to vasp.4.4-vasp.4.6
   LMAXPAW     = -100 max onsite density
   LMAXMIX     =    2 max onsite mixed and CHGCAR
   VOSKOWN=      0    Vosko Wilk Nusair interpolation
   ROPT   =    0.00000   0.00000   0.00000
 Ionic relaxation
   EDIFFG = -.1E-01   stopping-criterion for IOM
   NSW    =    200    number of steps for IOM
   NBLOCK =      1;   KBLOCK =    200    inner block; outer block 
   IBRION =      2    ionic relax: 0-MD 1-quasi-New 2-CG
   NFREE  =      1    steps in history (QN), initial steepest desc. (CG)
   ISIF   =      3    stress and relaxation
   IWAVPR =     11    prediction:  0-non 1-charg 2-wave 3-comb
   ISYM   =      2    0-nonsym 1-usesym 2-fastsym
   LCORR  =      T    Harris-Foulkes like correction to forces

   POTIM  = 0.5000    time-step for ionic-motion
   TEIN   =    0.0    initial temperature
   TEBEG  =    0.0;   TEEND  =   0.0 temperature during run
   SMASS  =  -3.00    Nose mass-parameter (am)
   estimated Nose-frequenzy (Omega)   =  0.10E-29 period in steps =****** mass=  -0.327E-27a.u.
   SCALEE = 1.0000    scale energy and forces
   NPACO  =    256;   APACO  = 16.0  distance and # of slots for P.C.
   PSTRESS=    0.0 pullay stress

  Mass of Ions in am
   POMASS = 138.90 26.98 16.00
  Ionic Valenz
   ZVAL   =  11.00  3.00  6.00
  Atomic Wigner-Seitz radii
   RWIGS  =  -1.00 -1.00 -1.00
  virtual crystal weights 
   VCA    =   1.00  1.00  1.00
   NELECT =      32.0000    total number of electrons
   NUPDOWN=      -1.0000    fix difference up-down

 DOS related values:
   EMIN   =  10.00;   EMAX   =-10.00  energy-range for DOS
   EFERMI =   0.00
   ISMEAR =     0;   SIGMA  =   0.05  broadening in eV -4-tet -1-fermi 0-gaus

 Electronic relaxation 2 (details)
   IALGO  =     38    algorithm
   LDIAG  =      T    sub-space diagonalisation (order eigenvalues)
   LSUBROT=      T    optimize rotation matrix (better conditioning)
   TURBO    =      0    0=normal 1=particle mesh
   IRESTART =      0    0=no restart 2=restart with 2 vectors
   NREBOOT  =      0    no. of reboots
   NMIN     =      0    reboot dimension
   EREF     =   0.00    reference energy to select bands
   IMIX   =      4    mixing-type and parameters
     AMIX     =   0.40;   BMIX     =  1.00
     AMIX_MAG =   1.60;   BMIX_MAG =  1.00
     AMIN     =   0.10
     WC   =   100.;   INIMIX=   1;  MIXPRE=   1;  MAXMIX= -45

 Intra band minimization:
   WEIMIN = 0.0010     energy-eigenvalue tresh-hold
   EBREAK =  0.78E-07  absolut break condition
   DEPER  =   0.30     relativ break condition  

   TIME   =   0.40     timestep for ELM

  volume/ion in A,a.u.               =      10.83        73.07
  Fermi-wavevector in a.u.,A,eV,Ry     =   1.373919  2.596330 25.683072  1.887653
  Thomas-Fermi vector in A             =   2.499392
 
 Write flags
   LWAVE  =      T    write WAVECAR
   LCHARG =      T    write CHGCAR
   LVTOT  =      T    write LOCPOT, total local potential
   LVHAR  =      F    write LOCPOT, Hartree potential only
   LELF   =      T    write electronic localiz. function (ELF)
   LORBIT =     12    0 simple, 1 ext, 2 COOP (PROOUT)


 Dipole corrections
   LMONO  =      F    monopole corrections only (constant potential shift)
   LDIPOL =      F    correct potential (dipole corrections)
   IDIPOL =      0    1-x, 2-y, 3-z, 4-all directions 
   EPSILON=  1.0000000 bulk dielectric constant

 Exchange correlation treatment:
   GGA     =    --    GGA type
   LEXCH   =     8    internal setting for exchange type
   VOSKOWN=      0    Vosko Wilk Nusair interpolation
   LHFCALC =     F    Hartree Fock is set to
   LHFONE  =     F    Hartree Fock one center treatment
   AEXX    =    0.0000 exact exchange contribution

 Linear response parameters
   LEPSILON=     F    determine dielectric tensor
   LRPA    =     F    only Hartree local field effects (RPA)
   LNABLA  =     F    use nabla operator in PAW spheres
   LVEL    =     F    velocity operator in full k-point grid
   LINTERFAST=   F  fast interpolation
   KINTER  =     0    interpolate to denser k-point grid
   CSHIFT  =0.1000    complex shift for real part using Kramers Kronig
   OMEGAMAX=  -1.0    maximum frequency
   DEG_THRESHOLD= 0.2000000E-02 threshold for treating states as degnerate
   RTIME   =    0.100 relaxation time in fs

 Orbital magnetization related:
   ORBITALMAG=     F  switch on orbital magnetization
   LCHIMAG   =     F  perturbation theory with respect to B field
   DQ        =  0.001000  dq finite difference perturbation B field



--------------------------------------------------------------------------------------------------------


 conjugate gradient relaxation of ions
 charge density and potential will be updated during run
 spin polarized calculation
 Variant of blocked Davidson
 Davidson routine will perform the subspace rotation
 perform sub-space diagonalisation
    after iterative eigenvector-optimisation
 modified Broyden-mixing scheme, WC =      100.0
 initial mixing is a Kerker type mixing with AMIX =  0.4000 and BMIX =      1.0000
 Hartree-type preconditioning will be used
 using additional bands           16
 reciprocal scheme for non local part
 use partial core corrections
 calculate Harris-corrections to forces 
   (improved forces if not selfconsistent)
 use gradient corrections 
 use of overlap-Matrix (Vanderbilt PP)
 Gauss-broadening in eV      SIGMA  =   0.05


--------------------------------------------------------------------------------------------------------


  energy-cutoff  :      500.00
  volume of cell :       54.14
      direct lattice vectors                 reciprocal lattice vectors
     3.782948800  0.000000000  0.000000000     0.264344048 -0.000000000  0.000000000
     0.000000000  3.782948800  0.000000000     0.000000000  0.264344048  0.000000000
     0.000000000  0.000000000  3.782948800    -0.000000000 -0.000000000  0.264344048

  length of vectors
     3.782948800  3.782948800  3.782948800     0.264344048  0.264344048  0.264344048


 
 k-points in units of 2pi/SCALE and weight: Automatic mesh                          
   0.00000000  0.00000000  0.00000000       0.002
   0.03304301 -0.00000000  0.00000000       0.012
   0.06608601 -0.00000000  0.00000000       0.012
   0.09912902 -0.00000000  0.00000000       0.012
   0.13217202 -0.00000000  0.00000000       0.006
   0.03304301  0.03304301  0.00000000       0.023
   0.06608601  0.03304301  0.00000000       0.047
   0.09912902  0.03304301  0.00000000       0.047
   0.13217202  0.03304301  0.00000000       0.023
   0.06608601  0.06608601  0.00000000       0.023
   0.09912902  0.06608601  0.00000000       0.047
   0.13217202  0.06608601  0.00000000       0.023
   0.09912902  0.09912902  0.00000000       0.023
   0.13217202  0.09912902  0.00000000       0.023
   0.13217202  0.13217202  0.00000000       0.006
   0.03304301  0.03304301  0.03304301       0.016
   0.06608601  0.03304301  0.03304301       0.047
   0.09912902  0.03304301  0.03304301       0.047
   0.13217202  0.03304301  0.03304301       0.023
   0.06608601  0.06608601  0.03304301       0.047
   0.09912902  0.06608601  0.03304301       0.094
   0.13217202  0.06608601  0.03304301       0.047
   0.09912902  0.09912902  0.03304301       0.047
   0.13217202  0.09912902  0.03304301       0.047
   0.13217202  0.13217202  0.03304301       0.012
   0.06608601  0.06608601  0.06608601       0.016
   0.09912902  0.06608601  0.06608601       0.047
   0.13217202  0.06608601  0.06608601       0.023
   0.09912902  0.09912902  0.06608601       0.047
   0.13217202  0.09912902  0.06608601       0.047
   0.13217202  0.13217202  0.06608601       0.012
   0.09912902  0.09912902  0.09912902       0.016
   0.13217202  0.09912902  0.09912902       0.023
   0.13217202  0.13217202  0.09912902       0.012
   0.13217202  0.13217202  0.13217202       0.002
 
 k-points in reciprocal lattice and weights: Automatic mesh                          
   0.00000000  0.00000000  0.00000000       0.002
   0.12500000  0.00000000  0.00000000       0.012
   0.25000000  0.00000000  0.00000000       0.012
   0.37500000  0.00000000  0.00000000       0.012
   0.50000000  0.00000000  0.00000000       0.006
   0.12500000  0.12500000  0.00000000       0.023
   0.25000000  0.12500000  0.00000000       0.047
   0.37500000  0.12500000  0.00000000       0.047
   0.50000000  0.12500000  0.00000000       0.023
   0.25000000  0.25000000  0.00000000       0.023
   0.37500000  0.25000000  0.00000000       0.047
   0.50000000  0.25000000  0.00000000       0.023
   0.37500000  0.37500000  0.00000000       0.023
   0.50000000  0.37500000  0.00000000       0.023
   0.50000000  0.50000000  0.00000000       0.006
   0.12500000  0.12500000  0.12500000       0.016
   0.25000000  0.12500000  0.12500000       0.047
   0.37500000  0.12500000  0.12500000       0.047
   0.50000000  0.12500000  0.12500000       0.023
   0.25000000  0.25000000  0.12500000       0.047
   0.37500000  0.25000000  0.12500000       0.094
   0.50000000  0.25000000  0.12500000       0.047
   0.37500000  0.37500000  0.12500000       0.047
   0.50000000  0.37500000  0.12500000       0.047
   0.50000000  0.50000000  0.12500000       0.012
   0.25000000  0.25000000  0.25000000       0.016
   0.37500000  0.25000000  0.25000000       0.047
   0.50000000  0.25000000  0.25000000       0.023
   0.37500000  0.37500000  0.25000000       0.047
   0.50000000  0.37500000  0.25000000       0.047
   0.50000000  0.50000000  0.25000000       0.012
   0.37500000  0.37500000  0.37500000       0.016
   0.50000000  0.37500000  0.37500000       0.023
   0.50000000  0.50000000  0.37500000       0.012
   0.50000000  0.50000000  0.50000000       0.002
 
 position of ions in fractional coordinates (direct lattice) 
   0.50000000  0.50000000  0.50000000
   0.00000000  0.00000000  0.00000000
   0.00000000  0.50000000  0.00000000
   0.00000000  0.00000000  0.50000000
   0.50000000  0.00000000  0.00000000
 
 position of ions in cartesian coordinates  (Angst):
   1.89147440  1.89147440  1.89147440
   0.00000000  0.00000000  0.00000000
   0.00000000  1.89147440  0.00000000
   0.00000000  0.00000000  1.89147440
   1.89147440  0.00000000  0.00000000
 


--------------------------------------------------------------------------------------------------------


 k-point  1 :   0.0000 0.0000 0.0000  plane waves:    1357
 k-point  2 :   0.1250 0.0000 0.0000  plane waves:    1370
 k-point  3 :   0.2500 0.0000 0.0000  plane waves:    1386
 k-point  4 :   0.3750 0.0000 0.0000  plane waves:    1374
 k-point  5 :   0.5000 0.0000 0.0000  plane waves:    1406
 k-point  6 :   0.1250 0.1250 0.0000  plane waves:    1362
 k-point  7 :   0.2500 0.1250 0.0000  plane waves:    1370
 k-point  8 :   0.3750 0.1250 0.0000  plane waves:    1367
 k-point  9 :   0.5000 0.1250 0.0000  plane waves:    1386
 k-point 10 :   0.2500 0.2500 0.0000  plane waves:    1364
 k-point 11 :   0.3750 0.2500 0.0000  plane waves:    1364
 k-point 12 :   0.5000 0.2500 0.0000  plane waves:    1370
 k-point 13 :   0.3750 0.3750 0.0000  plane waves:    1380
 k-point 14 :   0.5000 0.3750 0.0000  plane waves:    1366
 k-point 15 :   0.5000 0.5000 0.0000  plane waves:    1372
 k-point 16 :   0.1250 0.1250 0.1250  plane waves:    1367
 k-point 17 :   0.2500 0.1250 0.1250  plane waves:    1365
 k-point 18 :   0.3750 0.1250 0.1250  plane waves:    1369
 k-point 19 :   0.5000 0.1250 0.1250  plane waves:    1388
 k-point 20 :   0.2500 0.2500 0.1250  plane waves:    1368
 k-point 21 :   0.3750 0.2500 0.1250  plane waves:    1376
 k-point 22 :   0.5000 0.2500 0.1250  plane waves:    1372
 k-point 23 :   0.3750 0.3750 0.1250  plane waves:    1376
 k-point 24 :   0.5000 0.3750 0.1250  plane waves:    1372
 k-point 25 :   0.5000 0.5000 0.1250  plane waves:    1392
 k-point 26 :   0.2500 0.2500 0.2500  plane waves:    1382
 k-point 27 :   0.3750 0.2500 0.2500  plane waves:    1394
 k-point 28 :   0.5000 0.2500 0.2500  plane waves:    1378
 k-point 29 :   0.3750 0.3750 0.2500  plane waves:    1377
 k-point 30 :   0.5000 0.3750 0.2500  plane waves:    1378
 k-point 31 :   0.5000 0.5000 0.2500  plane waves:    1400
 k-point 32 :   0.3750 0.3750 0.3750  plane waves:    1379
 k-point 33 :   0.5000 0.3750 0.3750  plane waves:    1386
 k-point 34 :   0.5000 0.5000 0.3750  plane waves:    1380
 k-point 35 :   0.5000 0.5000 0.5000  plane waves:    1376

 maximum and minimum number of plane-waves per node :      1406     1357

 maximum number of plane-waves:      1406
 maximum index in each direction: 
   IXMAX=    6   IYMAX=    6   IZMAX=    6
   IXMIN=   -7   IYMIN=   -7   IZMIN=   -7

 NGX is ok and might be reduce to  28
 NGY is ok and might be reduce to  28
 NGZ is ok and might be reduce to  28

 serial   3D FFT for wavefunctions
 parallel 3D FFT for charge:
    minimum data exchange during FFTs selected (reduces bandwidth)


 total amount of memory used by VASP on root node    72754. kBytes
========================================================================

   base      :      30000. kBytes
   nonl-proj :      37959. kBytes
   fftplans  :        307. kBytes
   grid      :       2349. kBytes
   one-center:        491. kBytes
   wavefun   :       1648. kBytes
 
 Broyden mixing: mesh for mixing (old mesh)
   NGX = 13   NGY = 13   NGZ = 13
  (NGX  = 56   NGY  = 56   NGZ  = 56)
  gives a total of   2197 points

 initial charge density was supplied:
 charge density of overlapping atoms calculated
 number of electron      32.0000000 magnetization       5.0000000
 keeping initial charge density in first step


--------------------------------------------------------------------------------------------------------


 Maximum index for augmentation-charges          861 (set IRDMAX)


--------------------------------------------------------------------------------------------------------


 First call to EWALD:  gamma=   0.469
 Maximum number of real-space cells 3x 3x 3
 Maximum number of reciprocal cells 3x 3x 3

 FEWALD executed in parallel
    FEWALD:  cpu time    0.00: real time    0.00


----------------------------------------- Iteration    1(   1)  ---------------------------------------


    POTLOK:  cpu time    0.01: real time    0.01
    SETDIJ:  cpu time    1.06: real time    1.06
     EDDAV:  cpu time    1.12: real time    1.12
       DOS:  cpu time    0.00: real time    0.00
    --------------------------------------------
      LOOP:  cpu time    2.19: real time    2.21

 eigenvalue-minimisations  :  4480
 total energy-change (2. order) : 0.1210726E+03  (-0.1587883E+04)
 number of electron      32.0000000 magnetization       5.0000000
 augmentation part       32.0000000 magnetization       5.0000000

 Free energy of the ion-electron system (eV)
  ---------------------------------------------------
  alpha Z        PSCENC =       112.15924403
  Ewald energy   TEWEN  =     -2084.18796600
  -1/2 Hartree   DENC   =      -328.44610944
  -exchange  EXHF       =         0.00000000
  -V(xc)+E(xc)   XCENC  =        90.82222947
  PAW double counting   =      1749.17337288    -1721.93272674
  entropy T*S    EENTRO =        -0.00459423
  eigenvalues    EBANDS =        86.90630269
  atomic energy  EATOM  =      2216.58289728
  ---------------------------------------------------
  free energy    TOTEN  =       121.07264995 eV

  energy without entropy =      121.07724418  energy(sigma->0) =      121.07494706


--------------------------------------------------------------------------------------------------------




----------------------------------------- Iteration    1(   2)  ---------------------------------------


     EDDAV:  cpu time    1.72: real time    1.72
       DOS:  cpu time    0.00: real time    0.00
    --------------------------------------------
      LOOP:  cpu time    1.72: real time    1.73

 eigenvalue-minimisations  :  6432
 total energy-change (2. order) :-0.1618265E+03  (-0.1576192E+03)
 number of electron      32.0000000 magnetization       5.0000000
 augmentation part       32.0000000 magnetization       5.0000000

 Free energy of the ion-electron system (eV)
  ---------------------------------------------------
  alpha Z        PSCENC =       112.15924403
  Ewald energy   TEWEN  =     -2084.18796600
  -1/2 Hartree   DENC   =      -328.44610944
  -exchange  EXHF       =         0.00000000
  -V(xc)+E(xc)   XCENC  =        90.82222947
  PAW double counting   =      1749.17337288    -1721.93272674
  entropy T*S    EENTRO =        -0.00000000
  eigenvalues    EBANDS =       -74.92474401
  atomic energy  EATOM  =      2216.58289728
  ---------------------------------------------------
  free energy    TOTEN  =       -40.75380253 eV

  energy without entropy =      -40.75380253  energy(sigma->0) =      -40.75380253


--------------------------------------------------------------------------------------------------------




----------------------------------------- Iteration    1(   3)  ---------------------------------------


     EDDAV:  cpu time    1.22: real time    1.22
       DOS:  cpu time    0.00: real time    0.00
    --------------------------------------------
      LOOP:  cpu time    1.22: real time    1.24

 eigenvalue-minimisations  :  4800
 total energy-change (2. order) :-0.1877360E+01  (-0.1877360E+01)
 number of electron      32.0000000 magnetization       5.0000000
 augmentation part       32.0000000 magnetization       5.0000000

 Free energy of the ion-electron system (eV)
  ---------------------------------------------------
  alpha Z        PSCENC =       112.15924403
  Ewald energy   TEWEN  =     -2084.18796600
  -1/2 Hartree   DENC   =      -328.44610944
  -exchange  EXHF       =         0.00000000
  -V(xc)+E(xc)   XCENC  =        90.82222947
  PAW double counting   =      1749.17337288    -1721.93272674
  entropy T*S    EENTRO =        -0.00000000
  eigenvalues    EBANDS =       -76.80210404
  atomic energy  EATOM  =      2216.58289728
  ---------------------------------------------------
  free energy    TOTEN  =       -42.63116256 eV

  energy without entropy =      -42.63116256  energy(sigma->0) =      -42.63116256


--------------------------------------------------------------------------------------------------------




----------------------------------------- Iteration    1(   4)  ---------------------------------------


     EDDAV:  cpu time    2.58: real time    2.58
       DOS:  cpu time    0.00: real time    0.00
    --------------------------------------------
      LOOP:  cpu time    2.58: real time    2.60

 eigenvalue-minimisations  :  8448
 total energy-change (2. order) :-0.3514942E-01  (-0.3514942E-01)
 number of electron      32.0000000 magnetization       5.0000000
 augmentation part       32.0000000 magnetization       5.0000000

 Free energy of the ion-electron system (eV)
  ---------------------------------------------------
  alpha Z        PSCENC =       112.15924403
  Ewald energy   TEWEN  =     -2084.18796600
  -1/2 Hartree   DENC   =      -328.44610944
  -exchange  EXHF       =         0.00000000
  -V(xc)+E(xc)   XCENC  =        90.82222947
  PAW double counting   =      1749.17337288    -1721.93272674
  entropy T*S    EENTRO =        -0.00000000
  eigenvalues    EBANDS =       -76.83725347
  atomic energy  EATOM  =      2216.58289728
  ---------------------------------------------------
  free energy    TOTEN  =       -42.66631198 eV

  energy without entropy =      -42.66631198  energy(sigma->0) =      -42.66631198


--------------------------------------------------------------------------------------------------------




----------------------------------------- Iteration    1(   5)  ---------------------------------------


     EDDAV:  cpu time    1.27: real time    1.27
       DOS:  cpu time    0.00: real time    0.00
    CHARGE:  cpu time    0.06: real time    0.06
    MIXING:  cpu time    0.00: real time    0.00
    --------------------------------------------
      LOOP:  cpu time    1.33: real time    1.41

 eigenvalue-minimisations  :  4864
 total energy-change (2. order) :-0.1493289E-03  (-0.1493289E-03)
 number of electron      31.9999973 magnetization      -0.8715842
 augmentation part        0.6666014 magnetization      -0.8074345

 Broyden mixing:
  rms(total) = 0.17148E+01    rms(broyden)= 0.17144E+01
  rms(prec ) = 0.34254E+01
  weight for this iteration     100.00

 Free energy of the ion-electron system (eV)
  ---------------------------------------------------
  alpha Z        PSCENC =       112.15924403
  Ewald energy   TEWEN  =     -2084.18796600
  -1/2 Hartree   DENC   =      -328.44610944
  -exchange  EXHF       =         0.00000000
  -V(xc)+E(xc)   XCENC  =        90.82222947
  PAW double counting   =      1749.17337288    -1721.93272674
  entropy T*S    EENTRO =        -0.00000000
  eigenvalues    EBANDS =       -76.83740279
  atomic energy  EATOM  =      2216.58289728
  ---------------------------------------------------
  free energy    TOTEN  =       -42.66646131 eV

  energy without entropy =      -42.66646131  energy(sigma->0) =      -42.66646131


--------------------------------------------------------------------------------------------------------




----------------------------------------- Iteration    1(   6)  ---------------------------------------


    POTLOK:  cpu time    0.01: real time    0.01
    SETDIJ:  cpu time    1.06: real time    1.06
     EDDAV:  cpu time    1.39: real time    1.39
       DOS:  cpu time    0.00: real time    0.00
    CHARGE:  cpu time    0.05: real time    0.05
    MIXING:  cpu time    0.00: real time    0.00
    --------------------------------------------
      LOOP:  cpu time    2.51: real time    2.53

 eigenvalue-minimisations  :  5248
 total energy-change (2. order) : 0.2717483E+01  (-0.3229642E+01)
 number of electron      31.9999978 magnetization       0.0512349
 augmentation part        0.1600974 magnetization       0.0213040

 Broyden mixing:
  rms(total) = 0.56324E+00    rms(broyden)= 0.56250E+00
  rms(prec ) = 0.76965E+00
  weight for this iteration     100.00

 eigenvalues of (default mixing * dielectric matrix)
  average eigenvalue GAMMA=   0.8060
  0.8060

 Free energy of the ion-electron system (eV)
  ---------------------------------------------------
  alpha Z        PSCENC =       112.15924403
  Ewald energy   TEWEN  =     -2084.18796600
  -1/2 Hartree   DENC   =      -372.66072753
  -exchange  EXHF       =         0.00000000
  -V(xc)+E(xc)   XCENC  =        93.36450291
  PAW double counting   =      2036.63632053    -2011.08957212
  entropy T*S    EENTRO =        -0.00000000
  eigenvalues    EBANDS =       -30.75367755
  atomic energy  EATOM  =      2216.58289728
  ---------------------------------------------------
  free energy    TOTEN  =       -39.94897844 eV

  energy without entropy =      -39.94897844  energy(sigma->0) =      -39.94897844


--------------------------------------------------------------------------------------------------------




----------------------------------------- Iteration    1(   7)  ---------------------------------------


    POTLOK:  cpu time    0.01: real time    0.01
    SETDIJ:  cpu time    1.06: real time    1.06
     EDDAV:  cpu time    1.30: real time    1.30
       DOS:  cpu time    0.00: real time    0.00
    CHARGE:  cpu time    0.05: real time    0.05
    MIXING:  cpu time    0.00: real time    0.00
    --------------------------------------------
      LOOP:  cpu time    2.43: real time    2.44

 eigenvalue-minimisations  :  4992
 total energy-change (2. order) :-0.3599140E-01  (-0.6096552E-01)
 number of electron      31.9999977 magnetization      -0.0434415
 augmentation part        0.1996657 magnetization      -0.0372276

 Broyden mixing:
  rms(total) = 0.26333E+00    rms(broyden)= 0.26332E+00
  rms(prec ) = 0.41556E+00
  weight for this iteration     100.00

 eigenvalues of (default mixing * dielectric matrix)
  average eigenvalue GAMMA=   1.0346
  0.8475  1.2217

 Free energy of the ion-electron system (eV)
  ---------------------------------------------------
  alpha Z        PSCENC =       112.15924403
  Ewald energy   TEWEN  =     -2084.18796600
  -1/2 Hartree   DENC   =      -369.71115820
  -exchange  EXHF       =         0.00000000
  -V(xc)+E(xc)   XCENC  =        93.17876387
  PAW double counting   =      2216.78811554    -2191.50693199
  entropy T*S    EENTRO =        -0.00000000
  eigenvalues    EBANDS =       -33.28793437
  atomic energy  EATOM  =      2216.58289728
  ---------------------------------------------------
  free energy    TOTEN  =       -39.98496984 eV

  energy without entropy =      -39.98496984  energy(sigma->0) =      -39.98496984


--------------------------------------------------------------------------------------------------------




----------------------------------------- Iteration    1(   8)  ---------------------------------------


    POTLOK:  cpu time    0.01: real time    0.01
    SETDIJ:  cpu time    1.06: real time    1.06
     EDDAV:  cpu time    1.51: real time    1.51
       DOS:  cpu time    0.00: real time    0.00
    CHARGE:  cpu time    0.05: real time    0.05
    MIXING:  cpu time    0.00: real time    0.00
    --------------------------------------------
      LOOP:  cpu time    2.63: real time    2.64

 eigenvalue-minimisations  :  5568
 total energy-change (2. order) :-0.1065434E-02  (-0.9644187E-02)
 number of electron      31.9999977 magnetization      -0.0114533
 augmentation part        0.2141878 magnetization      -0.0177755

 Broyden mixing:
  rms(total) = 0.11962E+00    rms(broyden)= 0.11962E+00
  rms(prec ) = 0.14881E+00
  weight for this iteration     100.00

 eigenvalues of (default mixing * dielectric matrix)
  average eigenvalue GAMMA=   1.2579
  2.2530  0.8339  0.6869

 Free energy of the ion-electron system (eV)
  ---------------------------------------------------
  alpha Z        PSCENC =       112.15924403
  Ewald energy   TEWEN  =     -2084.18796600
  -1/2 Hartree   DENC   =      -371.21122868
  -exchange  EXHF       =         0.00000000
  -V(xc)+E(xc)   XCENC  =        93.39448415
  PAW double counting   =      2453.79184074    -2429.00374677
  entropy T*S    EENTRO =        -0.00000000
  eigenvalues    EBANDS =       -31.51156004
  atomic energy  EATOM  =      2216.58289728
  ---------------------------------------------------
  free energy    TOTEN  =       -39.98603527 eV

  energy without entropy =      -39.98603527  energy(sigma->0) =      -39.98603527


--------------------------------------------------------------------------------------------------------




----------------------------------------- Iteration    1(   9)  ---------------------------------------


    POTLOK:  cpu time    0.01: real time    0.01
    SETDIJ:  cpu time    1.06: real time    1.06
     EDDAV:  cpu time    1.91: real time    1.91
       DOS:  cpu time    0.00: real time    0.00
    CHARGE:  cpu time    0.05: real time    0.05
    MIXING:  cpu time    0.00: real time    0.00
    --------------------------------------------
      LOOP:  cpu time    3.04: real time    3.05

 eigenvalue-minimisations  :  6688
 total energy-change (2. order) : 0.6511561E-03  (-0.1494659E-02)
 number of electron      31.9999977 magnetization       0.0023805
 augmentation part        0.2136934 magnetization       0.0038708

 Broyden mixing:
  rms(total) = 0.44527E-01    rms(broyden)= 0.44526E-01
  rms(prec ) = 0.50791E-01
  weight for this iteration     100.00

 eigenvalues of (default mixing * dielectric matrix)
  average eigenvalue GAMMA=   1.1957
  2.4353  0.8781  0.8781  0.5913

 Free energy of the ion-electron system (eV)
  ---------------------------------------------------
  alpha Z        PSCENC =       112.15924403
  Ewald energy   TEWEN  =     -2084.18796600
  -1/2 Hartree   DENC   =      -371.85461401
  -exchange  EXHF       =         0.00000000
  -V(xc)+E(xc)   XCENC  =        93.48520738
  PAW double counting   =      2521.91655970    -2497.30670614
  entropy T*S    EENTRO =        -0.00000000
  eigenvalues    EBANDS =       -30.78000635
  atomic energy  EATOM  =      2216.58289728
  ---------------------------------------------------
  free energy    TOTEN  =       -39.98538412 eV

  energy without entropy =      -39.98538412  energy(sigma->0) =      -39.98538412


--------------------------------------------------------------------------------------------------------




----------------------------------------- Iteration    1(  10)  ---------------------------------------


    POTLOK:  cpu time    0.01: real time    0.01
    SETDIJ:  cpu time    1.06: real time    1.06
     EDDAV:  cpu time    1.94: real time    1.94
       DOS:  cpu time    0.00: real time    0.00
    CHARGE:  cpu time    0.05: real time    0.05
    MIXING:  cpu time    0.00: real time    0.00
    --------------------------------------------
      LOOP:  cpu time    3.06: real time    3.08

 eigenvalue-minimisations  :  6688
 total energy-change (2. order) : 0.6543667E-03  (-0.1355191E-03)
 number of electron      31.9999977 magnetization       0.0012953
 augmentation part        0.2133796 magnetization       0.0010686

 Broyden mixing:
  rms(total) = 0.17184E-01    rms(broyden)= 0.17183E-01
  rms(prec ) = 0.23117E-01
  weight for this iteration     100.00

 eigenvalues of (default mixing * dielectric matrix)
  average eigenvalue GAMMA=   1.2131
  2.4525  1.3672  0.8260  0.8260  0.5937

 Free energy of the ion-electron system (eV)
  ---------------------------------------------------
  alpha Z        PSCENC =       112.15924403
  Ewald energy   TEWEN  =     -2084.18796600
  -1/2 Hartree   DENC   =      -371.92204314
  -exchange  EXHF       =         0.00000000
  -V(xc)+E(xc)   XCENC  =        93.50019068
  PAW double counting   =      2516.75798944    -2492.17316752
  entropy T*S    EENTRO =        -0.00000000
  eigenvalues    EBANDS =       -30.70187453
  atomic energy  EATOM  =      2216.58289728
  ---------------------------------------------------
  free energy    TOTEN  =       -39.98472975 eV

  energy without entropy =      -39.98472975  energy(sigma->0) =      -39.98472975


--------------------------------------------------------------------------------------------------------




----------------------------------------- Iteration    1(  11)  ---------------------------------------


    POTLOK:  cpu time    0.01: real time    0.01
    SETDIJ:  cpu time    1.05: real time    1.05
     EDDAV:  cpu time    1.86: real time    1.87
       DOS:  cpu time    0.00: real time    0.00
    CHARGE:  cpu time    0.05: real time    0.05
    MIXING:  cpu time    0.00: real time    0.00
    --------------------------------------------
      LOOP:  cpu time    2.99: real time    3.00

 eigenvalue-minimisations  :  6624
 total energy-change (2. order) :-0.1401492E-03  (-0.3624175E-04)
 number of electron      31.9999977 magnetization      -0.0000184
 augmentation part        0.2134605 magnetization       0.0004971

 Broyden mixing:
  rms(total) = 0.70486E-02    rms(broyden)= 0.70475E-02
  rms(prec ) = 0.87981E-02
  weight for this iteration     100.00

 eigenvalues of (default mixing * dielectric matrix)
  average eigenvalue GAMMA=   1.2917
  2.4756  2.1972  0.8829  0.8829  0.6969  0.6148

 Free energy of the ion-electron system (eV)
  ---------------------------------------------------
  alpha Z        PSCENC =       112.15924403
  Ewald energy   TEWEN  =     -2084.18796600
  -1/2 Hartree   DENC   =      -371.98992715
  -exchange  EXHF       =         0.00000000
  -V(xc)+E(xc)   XCENC  =        93.51643790
  PAW double counting   =      2505.32024262    -2480.75888710
  entropy T*S    EENTRO =        -0.00000000
  eigenvalues    EBANDS =       -30.62691149
  atomic energy  EATOM  =      2216.58289728
  ---------------------------------------------------
  free energy    TOTEN  =       -39.98486990 eV

  energy without entropy =      -39.98486990  energy(sigma->0) =      -39.98486990


--------------------------------------------------------------------------------------------------------




----------------------------------------- Iteration    1(  12)  ---------------------------------------


    POTLOK:  cpu time    0.01: real time    0.01
    SETDIJ:  cpu time    1.06: real time    1.06
     EDDAV:  cpu time    1.96: real time    1.97
       DOS:  cpu time    0.00: real time    0.00
    CHARGE:  cpu time    0.05: real time    0.05
    MIXING:  cpu time    0.00: real time    0.00
    --------------------------------------------
      LOOP:  cpu time    3.09: real time    3.10

 eigenvalue-minimisations  :  6976
 total energy-change (2. order) :-0.4220995E-04  (-0.1053593E-04)
 number of electron      31.9999977 magnetization       0.0000851
 augmentation part        0.2132434 magnetization      -0.0003257

 Broyden mixing:
  rms(total) = 0.22134E-02    rms(broyden)= 0.22122E-02
  rms(prec ) = 0.25332E-02
  weight for this iteration     100.00

 eigenvalues of (default mixing * dielectric matrix)
  average eigenvalue GAMMA=   1.2620
  2.6359  2.4080  0.9086  0.9086  0.7756  0.5986  0.5986

 Free energy of the ion-electron system (eV)
  ---------------------------------------------------
  alpha Z        PSCENC =       112.15924403
  Ewald energy   TEWEN  =     -2084.18796600
  -1/2 Hartree   DENC   =      -372.03333632
  -exchange  EXHF       =         0.00000000
  -V(xc)+E(xc)   XCENC  =        93.52419777
  PAW double counting   =      2501.49488180    -2476.94316876
  entropy T*S    EENTRO =        -0.00000000
  eigenvalues    EBANDS =       -30.58166191
  atomic energy  EATOM  =      2216.58289728
  ---------------------------------------------------
  free energy    TOTEN  =       -39.98491211 eV

  energy without entropy =      -39.98491211  energy(sigma->0) =      -39.98491211


--------------------------------------------------------------------------------------------------------




----------------------------------------- Iteration    1(  13)  ---------------------------------------


    POTLOK:  cpu time    0.01: real time    0.01
    SETDIJ:  cpu time    1.05: real time    1.05
     EDDAV:  cpu time    1.98: real time    1.98
       DOS:  cpu time    0.00: real time    0.00
    --------------------------------------------
      LOOP:  cpu time    3.05: real time    3.08

 eigenvalue-minimisations  :  7008
 total energy-change (2. order) : 0.7920582E-05  (-0.1888668E-05)
 number of electron      31.9999977 magnetization       0.0000851
 augmentation part        0.2132434 magnetization      -0.0003257

 Free energy of the ion-electron system (eV)
  ---------------------------------------------------
  alpha Z        PSCENC =       112.15924403
  Ewald energy   TEWEN  =     -2084.18796600
  -1/2 Hartree   DENC   =      -372.03784834
  -exchange  EXHF       =         0.00000000
  -V(xc)+E(xc)   XCENC  =        93.52498937
  PAW double counting   =      2500.84984397    -2476.29842483
  entropy T*S    EENTRO =        -0.00000000
  eigenvalues    EBANDS =       -30.57763968
  atomic energy  EATOM  =      2216.58289728
  ---------------------------------------------------
[...]
 -0.000   0.000   0.000  -0.000   0.000   0.000  -0.000   0.000
  0.000  -0.000  -0.000  -0.000  -0.000   0.000  -0.000  -0.000
  0.000  -0.000   0.000   0.000  -0.000   0.000   0.000  -0.000
 -0.000   0.000  -0.000  -0.000  -0.000  -0.000   0.000  -0.000
  0.000  -0.000  -0.000  -0.000  -0.000  -0.000  -0.000   0.000
 -0.000   0.000   0.000  -0.000   0.000   0.000  -0.000   0.000
  0.000  -0.000  -0.000  -0.000  -0.000   0.000  -0.000  -0.000
  0.000   0.000   0.000   0.000  -0.000   0.000   0.000  -0.000
 -0.000   0.000   0.003   0.000   0.000  -0.002  -0.000  -0.000
 -0.000   0.000  -0.000   0.000  -0.000   0.000  -0.000   0.000
  0.000  -0.000   0.002  -0.000  -0.000  -0.002   0.000   0.000
 -0.000   0.000   0.000  -0.004   0.000  -0.000   0.003  -0.000
  0.000  -0.000  -0.000  -0.000   0.002   0.000   0.000  -0.002
 -0.000   0.000   0.000  -0.000  -0.000  -0.000   0.000   0.000
 -0.000   0.000   0.000  -0.000  -0.003   0.000   0.000   0.002
 -0.000   0.000   0.003   0.000   0.000  -0.002  -0.000  -0.000
 -0.000   0.000  -0.000   0.000  -0.000   0.000  -0.000   0.000
  0.000  -0.000   0.002  -0.000  -0.000  -0.001   0.000   0.000
 -0.000   0.000   0.000  -0.004   0.000  -0.000   0.002  -0.000
  0.000  -0.000  -0.000  -0.000   0.002   0.000   0.000  -0.001
 -0.000   0.000   0.000  -0.000  -0.000  -0.000  -0.000   0.000
 -0.000   0.000   0.000  -0.000  -0.003   0.000   0.000   0.002
 pseudopotential strength for first ion, spin component:           2
 51.590 -41.997  -0.000  -0.000  -0.000  -0.000  -0.000  -0.000
-41.997  26.896   0.000   0.000   0.000  -0.000  -0.000  -0.000
 -0.000   0.000  18.458   0.000  -0.000 -11.070   0.000   0.000
 -0.000   0.000   0.000  18.458   0.000   0.000 -11.070   0.000
 -0.000   0.000  -0.000   0.000  18.458   0.000   0.000 -11.070
 -0.000  -0.000 -11.070   0.000   0.000  16.657  -0.000  -0.000
 -0.000  -0.000   0.000 -11.070   0.000  -0.000  16.657  -0.000
 -0.000  -0.000   0.000   0.000 -11.070  -0.000  -0.000  16.657
 -0.000   0.000  -0.000  -0.000  -0.000  -0.000  -0.000  -0.000
  0.000  -0.000  -0.000  -0.000  -0.000  -0.000  -0.000  -0.000
 -0.000   0.000   0.000  -0.000   0.000   0.000  -0.000   0.000
  0.000  -0.000  -0.000  -0.000  -0.000  -0.000  -0.000  -0.000
  0.000  -0.000   0.000   0.000  -0.000   0.000   0.000  -0.000
 -0.000   0.000  -0.000  -0.000  -0.000  -0.000  -0.000  -0.000
  0.000  -0.000  -0.000  -0.000  -0.000  -0.000  -0.000  -0.000
 -0.000   0.000   0.000  -0.000   0.000   0.000  -0.000   0.000
  0.000  -0.000  -0.000  -0.000  -0.000  -0.000  -0.000  -0.000
  0.000   0.000   0.000   0.000  -0.000   0.000   0.000  -0.000
 -0.000   0.000   0.003   0.000   0.000  -0.002  -0.000  -0.000
  0.000  -0.000  -0.000   0.000  -0.000   0.000  -0.000   0.000
  0.000  -0.000   0.002  -0.000  -0.000  -0.002  -0.000   0.000
 -0.000   0.000   0.000  -0.004   0.000  -0.000   0.003  -0.000
  0.000  -0.000  -0.000  -0.000   0.002   0.000   0.000  -0.002
 -0.000   0.000   0.000   0.000  -0.000  -0.000   0.000   0.000
 -0.000   0.000   0.000  -0.000  -0.003  -0.000   0.000   0.002
 -0.000   0.000   0.003   0.000   0.000  -0.002  -0.000  -0.000
  0.000  -0.000  -0.000   0.000  -0.000   0.000  -0.000   0.000
  0.000  -0.000   0.002  -0.000  -0.000  -0.001  -0.000   0.000
 -0.000   0.000   0.000  -0.004   0.000  -0.000   0.002  -0.000
  0.000  -0.000  -0.000  -0.000   0.002   0.000   0.000  -0.001
 -0.000   0.000   0.000   0.000  -0.000  -0.000  -0.000   0.000
 -0.000   0.000   0.000  -0.000  -0.003  -0.000   0.000   0.002
 total augmentation occupancy for first ion, spin component:           1
  1.991   0.020   0.000   0.000   0.000   0.000   0.000   0.000  -0.000   0.000   0.000   0.000   0.000  -0.000   0.000   0.000
  0.020   0.524   0.000   0.000   0.000   0.000   0.000   0.000   0.000   0.000  -0.000   0.000   0.000  -0.000  -0.000  -0.000
  0.000   0.000   2.033   0.000   0.000  -0.010  -0.000  -0.000   0.000   0.000   0.000   0.000   0.000   0.000   0.000   0.000
  0.000   0.000   0.000   2.033   0.000  -0.000  -0.010  -0.000   0.000   0.000   0.000   0.000   0.000   0.000   0.000   0.000
  0.000   0.000   0.000   0.000   2.033  -0.000  -0.000  -0.010   0.000   0.000   0.000   0.000   0.000   0.000   0.000   0.000
  0.000   0.000  -0.010  -0.000  -0.000   0.013   0.000   0.000   0.000   0.000   0.000   0.000   0.000   0.000   0.000   0.000
  0.000   0.000  -0.000  -0.010  -0.000   0.000   0.013   0.000   0.000   0.000   0.000   0.000   0.000   0.000   0.000   0.000
  0.000   0.000  -0.000  -0.000  -0.010   0.000   0.000   0.013   0.000   0.000   0.000   0.000   0.000   0.000   0.000   0.000
 -0.000  -0.000   0.000   0.000   0.000   0.000   0.000   0.000   1.481   0.000  -0.000   0.000   0.000  -0.698  -0.000   0.000
  0.000  -0.000   0.000   0.000   0.000   0.000   0.000   0.000   0.000   1.481   0.000   0.000  -0.000  -0.000  -0.698  -0.000
  0.000  -0.000   0.000   0.000   0.000   0.000   0.000   0.000  -0.000   0.000   1.090   0.000  -0.000   0.000  -0.000  -0.505
 -0.000   0.000   0.000   0.000   0.000   0.000   0.000   0.000   0.000   0.000   0.000   1.481   0.000  -0.000  -0.000  -0.000
  0.000   0.000   0.000   0.000   0.000   0.000   0.000   0.000   0.000  -0.000   0.000   0.000   1.090  -0.000   0.000   0.000
 -0.000  -0.000   0.000   0.000   0.000   0.000   0.000   0.000  -0.698  -0.000   0.000  -0.000  -0.000   0.332   0.000  -0.000
  0.000  -0.000   0.000   0.000   0.000   0.000   0.000   0.000  -0.000  -0.698  -0.000  -0.000   0.000   0.000   0.332   0.000
  0.000   0.000   0.000   0.000   0.000   0.000   0.000   0.000   0.000  -0.000  -0.505  -0.000   0.000  -0.000   0.000   0.236
  0.000  -0.000   0.000   0.000   0.000   0.000   0.000   0.000  -0.000  -0.000  -0.000  -0.698  -0.000   0.000   0.000   0.000
  0.000   0.000   0.000   0.000   0.000   0.000   0.000   0.000  -0.000   0.000   0.000  -0.000  -0.505   0.000  -0.000  -0.000
  0.000   0.000   0.022   0.000   0.000  -0.010  -0.000  -0.000   0.000   0.000   0.000   0.000   0.000   0.000   0.000   0.000
  0.000   0.000   0.000   0.000   0.000  -0.000  -0.000  -0.000   0.000   0.000   0.000   0.000   0.000   0.000   0.000   0.000
  0.000   0.000   0.017   0.000   0.000  -0.008  -0.000  -0.000   0.000   0.000   0.000   0.000   0.000   0.000   0.000   0.000
  0.000   0.000   0.000  -0.028   0.000  -0.000   0.012  -0.000   0.000   0.000   0.000   0.000   0.000   0.000   0.000   0.000
  0.000   0.000   0.000   0.000   0.017  -0.000  -0.000  -0.008   0.000   0.000   0.000   0.000   0.000   0.000   0.000   0.000
  0.000   0.000   0.000   0.000  -0.000  -0.000  -0.000   0.000   0.000   0.000   0.000   0.000   0.000   0.000   0.000   0.000
  0.000   0.000   0.000  -0.000  -0.022  -0.000   0.000   0.010   0.000   0.000   0.000   0.000   0.000   0.000   0.000   0.000
  0.000   0.000  -0.031  -0.000  -0.000   0.013   0.000   0.000   0.000   0.000   0.000   0.000   0.000   0.000   0.000   0.000
  0.000   0.000  -0.000  -0.000  -0.000   0.000   0.000   0.000   0.000   0.000   0.000   0.000   0.000   0.000   0.000   0.000
  0.000   0.000  -0.024  -0.000  -0.000   0.010   0.000   0.000   0.000   0.000   0.000   0.000   0.000   0.000   0.000   0.000
  0.000   0.000  -0.000   0.040  -0.000   0.000  -0.017   0.000   0.000   0.000   0.000   0.000   0.000   0.000   0.000   0.000
  0.000   0.000  -0.000  -0.000  -0.024   0.000   0.000   0.010   0.000   0.000   0.000   0.000   0.000   0.000   0.000   0.000
  0.000   0.000  -0.000   0.000   0.000   0.000   0.000  -0.000   0.000   0.000   0.000   0.000   0.000   0.000   0.000   0.000
  0.000   0.000  -0.000   0.000   0.031   0.000  -0.000  -0.013   0.000   0.000   0.000   0.000   0.000   0.000   0.000   0.000
 total augmentation occupancy for first ion, spin component:           2
 -0.000   0.000   0.000   0.000   0.000   0.000   0.000   0.000   0.000   0.000   0.000  -0.000  -0.000   0.000   0.000  -0.000
  0.000  -0.000   0.000   0.000   0.000   0.000   0.000   0.000   0.000  -0.000   0.000  -0.000   0.000  -0.000   0.000   0.000
  0.000   0.000  -0.000  -0.000  -0.000   0.000   0.000   0.000   0.000   0.000   0.000   0.000   0.000   0.000   0.000   0.000
  0.000   0.000  -0.000  -0.000  -0.000   0.000   0.000   0.000   0.000   0.000   0.000   0.000   0.000   0.000   0.000   0.000
  0.000   0.000  -0.000  -0.000  -0.000   0.000   0.000   0.000   0.000   0.000   0.000   0.000   0.000   0.000   0.000   0.000
  0.000   0.000   0.000   0.000   0.000  -0.000  -0.000  -0.000   0.000   0.000   0.000   0.000   0.000   0.000   0.000   0.000
  0.000   0.000   0.000   0.000   0.000  -0.000  -0.000  -0.000   0.000   0.000   0.000   0.000   0.000   0.000   0.000   0.000
  0.000   0.000   0.000   0.000   0.000  -0.000  -0.000  -0.000   0.000   0.000   0.000   0.000   0.000   0.000   0.000   0.000
  0.000   0.000   0.000   0.000   0.000   0.000   0.000   0.000   0.000   0.000  -0.000   0.000   0.000  -0.000  -0.000  -0.000
  0.000  -0.000   0.000   0.000   0.000   0.000   0.000   0.000   0.000   0.000   0.000   0.000   0.000  -0.000  -0.000  -0.000
  0.000   0.000   0.000   0.000   0.000   0.000   0.000   0.000  -0.000   0.000  -0.000   0.000  -0.000  -0.000  -0.000   0.000
 -0.000  -0.000   0.000   0.000   0.000   0.000   0.000   0.000   0.000   0.000   0.000   0.000   0.000  -0.000  -0.000  -0.000
  0.000   0.000   0.000   0.000   0.000   0.000   0.000   0.000   0.000  -0.000  -0.000  -0.000  -0.000  -0.000  -0.000  -0.000
  0.000  -0.000   0.000   0.000   0.000   0.000   0.000   0.000  -0.000  -0.000  -0.000  -0.000  -0.000  -0.000   0.000   0.000
  0.000   0.000   0.000   0.000   0.000   0.000   0.000   0.000  -0.000  -0.000  -0.000  -0.000  -0.000   0.000  -0.000   0.000
 -0.000  -0.000   0.000   0.000   0.000   0.000   0.000   0.000  -0.000  -0.000   0.000  -0.000  -0.000   0.000   0.000  -0.000
  0.000  -0.000   0.000   0.000   0.000   0.000   0.000   0.000  -0.000  -0.000  -0.000  -0.000   0.000  -0.000  -0.000  -0.000
 -0.000   0.000   0.000   0.000   0.000   0.000   0.000   0.000  -0.000  -0.000   0.000   0.000   0.000   0.000   0.000  -0.000
  0.000   0.000   0.000   0.000   0.000  -0.000  -0.000  -0.000   0.000   0.000   0.000   0.000   0.000   0.000   0.000   0.000
  0.000   0.000   0.000   0.000   0.000  -0.000  -0.000  -0.000   0.000   0.000   0.000   0.000   0.000   0.000   0.000   0.000
  0.000   0.000   0.000   0.000   0.000  -0.000  -0.000  -0.000   0.000   0.000   0.000   0.000   0.000   0.000   0.000   0.000
  0.000   0.000   0.000  -0.000   0.000  -0.000   0.000  -0.000   0.000   0.000   0.000   0.000   0.000   0.000   0.000   0.000
  0.000   0.000   0.000   0.000   0.000  -0.000  -0.000  -0.000   0.000   0.000   0.000   0.000   0.000   0.000   0.000   0.000
  0.000   0.000   0.000   0.000  -0.000  -0.000   0.000   0.000   0.000   0.000   0.000   0.000   0.000   0.000   0.000   0.000
  0.000   0.000   0.000  -0.000  -0.000  -0.000   0.000   0.000   0.000   0.000   0.000   0.000   0.000   0.000   0.000   0.000
  0.000   0.000  -0.000  -0.000  -0.000   0.000   0.000   0.000   0.000   0.000   0.000   0.000   0.000   0.000   0.000   0.000
  0.000   0.000  -0.000  -0.000  -0.000   0.000   0.000   0.000   0.000   0.000   0.000   0.000   0.000   0.000   0.000   0.000
  0.000   0.000  -0.000  -0.000  -0.000   0.000   0.000   0.000   0.000   0.000   0.000   0.000   0.000   0.000   0.000   0.000
  0.000   0.000  -0.000   0.000  -0.000   0.000  -0.000   0.000   0.000   0.000   0.000   0.000   0.000   0.000   0.000   0.000
  0.000   0.000  -0.000  -0.000  -0.000   0.000   0.000   0.000   0.000   0.000   0.000   0.000   0.000   0.000   0.000   0.000
  0.000   0.000  -0.000   0.000   0.000   0.000  -0.000  -0.000   0.000   0.000   0.000   0.000   0.000   0.000   0.000   0.000
  0.000   0.000  -0.000   0.000   0.000   0.000  -0.000  -0.000   0.000   0.000   0.000   0.000   0.000   0.000   0.000   0.000


------------------------ aborting loop because EDIFF is reached ----------------------------------------


 


 total charge     
 
# of ion     s       p       d       f       tot
------------------------------------------------
  1        2.006   5.708   0.533   0.207   8.453
  2        0.303   0.398   0.000   0.000   0.701
  3        1.554   3.519   0.000   0.000   5.073
  4        1.553   3.570   0.000   0.000   5.123
  5        1.556   3.552   0.000   0.000   5.107
------------------------------------------------
tot        6.971  16.747   0.533   0.207  24.457

 


 magnetization (x)
 
# of ion     s       p       d       f       tot
------------------------------------------------
  1        0.000   0.000  -0.000   0.000   0.000
  2        0.000  -0.000   0.000   0.000  -0.000
  3        0.000  -0.000   0.000   0.000  -0.000
  4        0.000  -0.000   0.000   0.000  -0.000
  5        0.000  -0.000   0.000   0.000  -0.000
------------------------------------------------
tot        0.000  -0.000  -0.000   0.000   0.000

 
    CHARGE:  cpu time    0.05: real time    0.05
    FORLOC:  cpu time    0.00: real time    0.00
    FORNL :  cpu time    0.07: real time    0.07
    STRESS:  cpu time    0.43: real time    0.43
    FORCOR:  cpu time    0.01: real time    0.01
    FORHAR:  cpu time    0.00: real time    0.00
    MIXING:  cpu time    0.00: real time    0.00

  FORCE on cell =-STRESS in cart. coord.  units (eV):
  Direction    XX          YY          ZZ          XY          YZ          ZX
  --------------------------------------------------------------------------------------
  Alpha Z   109.79486   109.79486   109.79486
  Ewald    -689.81326  -689.81326  -689.81326    -0.00000     0.00000     0.00000
  Hartree   125.64337   125.64337   125.64337    -0.00000    -0.00000    -0.00000
  E(xc)    -140.26885  -140.26885  -140.26885     0.00000     0.00000    -0.00000
  Local     -70.32170   -70.32170   -70.32170     0.00000    -0.00000    -0.00000
  n-local    96.74604    94.70218    93.60415    -0.28458    -0.03792    -0.12308
  augment   -23.18988   -23.18988   -23.18988     0.00000    -0.00000    -0.00000
  Kinetic   580.34993   597.24428   601.79850    -3.89092    -4.14307    -2.35731
  Fock        0.00000     0.00000     0.00000     0.00000     0.00000     0.00000
  -------------------------------------------------------------------------------------
  Total      -0.00709    -0.00709    -0.00709    -0.00000    -0.00000    -0.00000
  in kB      -0.20548    -0.20548    -0.20548    -0.00000    -0.00000    -0.00000
  external pressure =       -0.21 kB  Pullay stress =        0.00 kB


 VOLUME and BASIS-vectors are now :
 -----------------------------------------------------------------------------
  energy-cutoff  :      500.00
  volume of cell :       55.30
      direct lattice vectors                 reciprocal lattice vectors
     3.809910856  0.000000000  0.000000000     0.262473333 -0.000000000 -0.000000000
     0.000000000  3.809910856  0.000000000    -0.000000000  0.262473333  0.000000000
     0.000000000 -0.000000000  3.809910856    -0.000000000 -0.000000000  0.262473333

  length of vectors
     3.809910856  3.809910856  3.809910856     0.262473333  0.262473333  0.262473333


 FORCES acting on ions
    electron-ion (+dipol)            ewald-force                    non-local-force                 convergence-correction
 -----------------------------------------------------------------------------------------------
   -.244E-13 0.120E-11 -.382E-12   0.576E-14 0.937E-14 0.520E-16   -.185E-25 -.607E-28 0.000E+00   -.178E-14 -.868E-14 -.400E-14
   -.367E-14 -.412E-14 -.102E-14   0.145E-14 0.300E-15 0.101E-15   0.324E-25 0.250E-28 0.000E+00   0.993E-15 0.697E-15 0.652E-16
   0.566E-14 0.144E-12 -.920E-14   -.147E-14 0.359E-15 -.823E-15   0.344E-25 -.212E-26 0.000E+00   -.598E-14 -.207E-13 -.175E-13
   0.495E-14 0.751E-14 0.122E-12   -.381E-14 -.371E-14 0.388E-15   -.114E-24 0.122E-27 0.000E+00   -.538E-14 -.122E-13 -.166E-13
   0.145E-12 0.632E-14 -.225E-11   -.234E-14 -.562E-14 -.335E-15   -.313E-25 0.217E-26 0.000E+00   -.186E-13 -.164E-13 -.202E-13
 -----------------------------------------------------------------------------------------------
   0.128E-12 0.135E-11 -.252E-11   -.400E-15 0.699E-15 -.617E-15   -.967E-25 0.142E-27 0.000E+00   -.308E-13 -.573E-13 -.583E-13
 
 
 POSITION                                       TOTAL-FORCE (eV/Angst)
 -----------------------------------------------------------------------------------
      1.90496      1.90496      1.90496         0.000000      0.000000     -0.000000
     -0.00000     -0.00000     -0.00000        -0.000000      0.000000      0.000000
      0.00000      1.90496      0.00000        -0.000000      0.000000     -0.000000
      0.00000     -0.00000      1.90496        -0.000000     -0.000000     -0.000000
      1.90496      0.00000      0.00000        -0.000000      0.000000     -0.000000
 -----------------------------------------------------------------------------------
    total drift:                                0.000000      0.000000     -0.000000


--------------------------------------------------------------------------------------------------------



  FREE ENERGIE OF THE ION-ELECTRON SYSTEM (eV)
  ---------------------------------------------------
  free  energy   TOTEN  =       -40.00047064 eV

  energy  without entropy=      -40.00047064  energy(sigma->0) =      -40.00047064
 
 d Force = 0.0000000E+00[ 0.000E+00, 0.000E+00]  d Energy = 0.1475324E-01-0.148E-01
 d Force = 0.0000000E+00[ 0.000E+00, 0.000E+00]  d Ewald  = 0.1440520E+02-0.144E+02


--------------------------------------------------------------------------------------------------------


    POTLOK:  cpu time    1.07: real time    1.07


--------------------------------------------------------------------------------------------------------




--------------------------------------------------------------------------------------------------------


  
 reached required accuracy - stopping structural energy minimisation
 writing wavefunctions
     LOOP+:  cpu time   22.65: real time   23.16
    4ORBIT:  cpu time    0.00: real time    0.00
 


 total charge     
 
# of ion     s       p       d       f       tot
------------------------------------------------
  1        2.006   5.708   0.533   0.207   8.453
  2        0.303   0.398   0.000   0.000   0.701
  3        1.554   3.519   0.000   0.000   5.073
  4        1.553   3.570   0.000   0.000   5.123
  5        1.556   3.552   0.000   0.000   5.107
------------------------------------------------
tot        6.971  16.747   0.533   0.207  24.457

 


 magnetization (x)
 
# of ion     s       p       d       f       tot
------------------------------------------------
  1        0.000   0.000  -0.000   0.000   0.000
  2        0.000  -0.000   0.000   0.000  -0.000
  3        0.000  -0.000   0.000   0.000  -0.000
  4        0.000  -0.000   0.000   0.000  -0.000
  5        0.000  -0.000   0.000   0.000  -0.000
------------------------------------------------
tot        0.000  -0.000  -0.000   0.000   0.000

 

 total amount of memory used by VASP on root node    72754. kBytes
========================================================================

   base      :      30000. kBytes
   nonl-proj :      37959. kBytes
   fftplans  :        307. kBytes
   grid      :       2349. kBytes
   one-center:        491. kBytes
   wavefun   :       1648. kBytes
 
  
  
 General timing and accounting informations for this job:
 ========================================================
  
                  Total CPU time used (sec):       79.482
                            User time (sec):       76.723
                          System time (sec):        2.759
                         Elapsed time (sec):       81.343
  
                   Maximum memory used (kb):      105864.
                   Average memory used (kb):           0.
  
                          Minor page faults:        29487
                          Major page faults:            2
                 Voluntary context switches:         3531
