LaAlO3 (band)                           
           1
     3.809911    0.000000    0.000000
     0.000000    3.809911    0.000000
     0.000000    0.000000    3.809911
   La   Al   O 
   1   1   3
LaAlO3 (band)                           
           1
     3.809911    0.000000    0.000000
     0.000000    3.809911    0.000000
     0.000000    0.000000    3.809911
   La   Al   O 
   1   1   3
Direct configuration=     1
   0.50000000  0.50000000  0.50000000
   0.00000000  0.00000000  0.00000000
   0.00000000  0.50000000  0.00000000
   0.00000000  0.00000000  0.50000000
   0.50000000  0.00000000  0.00000000
