Carbon Diamond (band)                   
   3.57000000000000     
     0.000000    0.489488    0.489488
     0.489488    0.000000    0.489488
     0.489488    0.489488    0.000000
   C 
     2
Direct
  0.000000  0.000000  0.000000
  0.250000  0.250000  0.250000
 
   36   36   36
  3.9248      5.4401      9.3190      13.949      17.654      19.461      19.328      17.851      15.791      13.736    
  11.972      10.557      9.4371      8.5288      7.7690      7.1371      6.6490      6.3374      6.2300      6.3374    
  6.6490      7.1371      7.7690      8.5288      9.4371      10.557      11.972      13.736      15.791      17.851    
  19.328      19.461      17.654      13.949      9.3190      5.4401      5.4401      8.2124      12.568      16.801    
  19.557      20.342      19.471      17.651      15.570      13.664      12.088      10.836      9.8323      8.9982    
  8.2916      7.7143      7.2974      7.0775      7.0775      7.2974      7.7143      8.2916      8.9982      9.8323    
  10.836      12.088      13.664      15.570      17.651      19.471      20.342      19.557      16.801      12.568    
  8.2125      5.4401      9.3190      12.568      16.429      19.477      20.879      20.596      19.140      17.179    
  15.234      13.559      12.209      11.132      10.248      9.4950      8.8569      8.3560      8.0323      7.9201    
  8.0323      8.3560      8.8569      9.4950      10.248      11.132      12.209      13.559      15.234      17.179    
  19.140      20.596      20.879      19.477      16.429      12.568      9.3191      8.0481      13.949      16.801    
  19.477      21.041      21.166      20.101      18.379      16.520      14.841      13.457      12.351      11.453    
  10.692      10.033      9.4839      9.0813      8.8671      8.8671      9.0813      9.4839      10.033      10.692    
  11.453      12.351      13.457      14.841      16.520      18.379      20.101      21.166      21.041      19.477    
  16.801      13.949      12.109      12.109      17.654      19.557      20.879      21.166      20.432      19.021    
  17.367      15.797      14.465      13.394      12.532      11.810      11.178      10.627      10.185      9.8955    
  9.7944      9.8955      10.185      10.627      11.178      11.810      12.532      13.394      14.465      15.797    
  17.367      19.021      20.432      21.166      20.879      19.557      17.654      15.979      15.313      15.979    
  19.461      20.342      20.596      20.101      19.021      17.663      16.309      15.124      14.161      13.394    
  12.761      12.206      11.706      11.275      10.951      10.776      10.776      10.951      11.275      11.706    
  12.206      12.761      13.394      14.161      15.124      16.309      17.663      19.021      20.101      20.596    
  20.342      19.461      18.376      17.638      17.638      18.376      19.328      19.471      19.140      18.379    
  17.367      16.309      15.353      14.568      13.952      13.457      13.028      12.629      12.261      11.953    
  11.745      11.671      11.745      11.953      12.261      12.629      13.028      13.457      13.952      14.568    
  15.353      16.309      17.367      18.379      19.140      19.471      19.328      18.867      18.387      18.186    
  18.387      18.867      17.851      17.651      17.179      16.520      15.797      15.124      14.568      14.145    
  13.825      13.559      13.306      13.050      12.808      12.614      12.505      12.505      12.614      12.808    
  13.050      13.306      13.559      13.825      14.145      14.568      15.124      15.797      16.520      17.179    
  17.651      17.851      17.797      17.610      17.457      17.457      17.610      17.797      15.791      15.570    
  15.234      14.841      14.465      14.161      13.952      13.825      13.743      13.664      13.560      13.430    
  13.299      13.200      13.163      13.200      13.299      13.430      13.560      13.664      13.743      13.825    
  13.952      14.161      14.465      14.841      15.234      15.570      15.791      15.873      15.846      15.782    
  15.750      15.782      15.847      15.873      13.736      13.664      13.559      13.457      13.394      13.394    
  13.457      13.559      13.664      13.736      13.758      13.735      13.692      13.660      13.660      13.692    
  13.735      13.758      13.736      13.664      13.559      13.457      13.394      13.394      13.457      13.559    
  13.664      13.736      13.758      13.735      13.692      13.660      13.660      13.692      13.735      13.758    
  11.972      12.088      12.209      12.351      12.532      12.761      13.028      13.306      13.560      13.758    
  13.885      13.946      13.965      13.967      13.965      13.946      13.885      13.758      13.560      13.306    
  13.028      12.761      12.532      12.351      12.209      12.088      11.972      11.855      11.741      11.645    
  11.580      11.557      11.580      11.645      11.741      11.855      10.557      10.836      11.132      11.453    
  11.810      12.206      12.629      13.050      13.430      13.735      13.946      14.067      14.118      14.118    
  14.067      13.946      13.735      13.430      13.050      12.629      12.206      11.810      11.453      11.132    
  10.836      10.557      10.297      10.067      9.8819      9.7542      9.6895      9.6895      9.7542      9.8819    
  10.067      10.297      9.4371      9.8323      10.248      10.692      11.178      11.706      12.261      12.808    
  13.299      13.692      13.965      14.118      14.166      14.118      13.965      13.692      13.299      12.808    
  12.261      11.706      11.178      10.692      10.248      9.8323      9.4371      9.0655      8.7326      8.4578    
  8.2565      8.1353      8.0951      8.1353      8.2564      8.4578      8.7326      9.0655      8.5288      8.9982    
  9.4950      10.033      10.627      11.275      11.953      12.614      13.200      13.660      13.967      14.118    
  14.118      13.967      13.660      13.200      12.614      11.953      11.275      10.627      10.033      9.4950    
  8.9982      8.5287      8.0844      7.6779      7.3308      7.0623      6.8827      6.7937      6.7937      6.8827    
  7.0622      7.3308      7.6779      8.0844      7.7690      8.2916      8.8569      9.4839      10.185      10.951    
  11.745      12.505      13.163      13.660      13.965      14.067      13.965      13.660      13.163      12.505    
  11.745      10.951      10.185      9.4839      8.8569      8.2916      7.7690      7.2785      6.8254      6.4280    
  6.1072      5.8766      5.7399      5.6949      5.7399      5.8766      6.1072      6.4280      6.8254      7.2785    
  7.1371      7.7143      8.3560      9.0813      9.8955      10.776      11.671      12.505      13.200      13.692    
  13.946      13.946      13.692      13.200      12.505      11.671      10.776      9.8955      9.0813      8.3560    
  7.7143      7.1370      6.6070      6.1202      5.6880      5.3288      5.0573      4.8790      4.7917      4.7917    
  4.8790      5.0573      5.3288      5.6880      6.1202      6.6070      6.6490      7.2974      8.0323      8.8671    
  9.7944      10.776      11.745      12.614      13.299      13.735      13.885      13.735      13.299      12.614    
  11.745      10.776      9.7944      8.8671      8.0323      7.2974      6.6490      6.0682      5.5443      5.0802    
  4.6889      4.3836      4.1699      4.0456      4.0051      4.0456      4.1699      4.3836      4.6890      5.0803    
  5.5443      6.0682      6.3374      7.0775      7.9201      8.8671      9.8955      10.951      11.953      12.808    
  13.430      13.758      13.758      13.430      12.808      11.953      10.951      9.8955      8.8671      7.9201    
  7.0776      6.3374      5.6853      5.1084      4.6034      4.1770      3.8385      3.5924      3.4353      3.3597    
  3.3597      3.4353      3.5924      3.8385      4.1770      4.6034      5.1084      5.6853      6.2300      7.0775    
  8.0323      9.0813      10.185      11.275      12.261      13.050      13.560      13.736      13.560      13.050    
  12.261      11.275      10.185      9.0813      8.0323      7.0776      6.2300      5.4855      4.8346      4.2720    
  3.7997      3.4224      3.1419      2.9532      2.8464      2.8121      2.8464      2.9532      3.1419      3.4224    
  3.7997      4.2720      4.8345      5.4855      6.3374      7.2974      8.3560      9.4839      10.627      11.706    
  12.629      13.306      13.664      13.664      13.306      12.629      11.706      10.627      9.4839      8.3560    
  7.2974      6.3374      5.4855      4.7410      4.1018      3.5680      3.1412      2.8200      2.5972      2.4603    
  2.3961      2.3961      2.4603      2.5973      2.8200      3.1412      3.5680      4.1018      4.7410      5.4855    
  6.6490      7.7143      8.8569      10.033      11.178      12.206      13.028      13.559      13.743      13.559    
  13.028      12.206      11.178      10.033      8.8569      7.7143      6.6490      5.6853      4.8346      4.1018    
  3.4899      2.9996      2.6276      2.3643      2.1948      2.1021      2.0729      2.1021      2.1948      2.3643    
  2.6276      2.9996      3.4899      4.1018      4.8345      5.6853      7.1371      8.2916      9.4950      10.692    
  11.810      12.761      13.457      13.825      13.825      13.457      12.761      11.810      10.692      9.4950    
  8.2916      7.1370      6.0682      5.1084      4.2720      3.5680      2.9996      2.5637      2.2497      2.0409    
  1.9173      1.8609      1.8609      1.9173      2.0409      2.2497      2.5637      2.9996      3.5680      4.2720    
  5.1084      6.0682      7.7690      8.9982      10.248      11.453      12.532      13.394      13.952      14.145    
  13.952      13.394      12.532      11.453      10.248      8.9982      7.7690      6.6070      5.5443      4.6034    
  3.7997      3.1412      2.6276      2.2497      1.9906      1.8288      1.7427      1.7160      1.7427      1.8288    
  1.9906      2.2497      2.6276      3.1412      3.7997      4.6034      5.5443      6.6070      8.5288      9.8323    
  11.132      12.351      13.394      14.161      14.568      14.568      14.161      13.394      12.351      11.132    
  9.8323      8.5287      7.2785      6.1202      5.0802      4.1770      3.4224      2.8200      2.3643      2.0409    
  1.8288      1.7049      1.6490      1.6490      1.7049      1.8288      2.0409      2.3643      2.8200      3.4224    
  4.1771      5.0803      6.1202      7.2785      9.4371      10.836      12.209      13.457      14.465      15.124    
  15.353      15.124      14.465      13.457      12.209      10.836      9.4371      8.0844      6.8254      5.6880    
  4.6889      3.8385      3.1419      2.5972      2.1948      1.9173      1.7427      1.6490      1.6198      1.6490    
  1.7427      1.9173      2.1948      2.5973      3.1419      3.8385      4.6890      5.6880      6.8254      8.0844    
  10.557      12.088      13.559      14.841      15.797      16.309      16.309      15.797      14.841      13.559    
  12.088      10.557      9.0655      7.6779      6.4280      5.3288      4.3836      3.5924      2.9532      2.4603    
  2.1021      1.8609      1.7160      1.6490      1.6490      1.7160      1.8609      2.1021      2.4603      2.9532    
  3.5924      4.3836      5.3288      6.4280      7.6779      9.0655      11.972      13.664      15.234      16.520    
  17.367      17.663      17.367      16.520      15.234      13.664      11.972      10.297      8.7326      7.3308    
  6.1072      5.0573      4.1699      3.4353      2.8464      2.3961      2.0729      1.8609      1.7427      1.7049    
  1.7427      1.8609      2.0729      2.3961      2.8464      3.4353      4.1699      5.0573      6.1071      7.3307    
  8.7326      10.297      13.736      15.570      17.179      18.379      19.021      19.021      18.379      17.179    
  15.570      13.736      11.855      10.067      8.4578      7.0623      5.8766      4.8790      4.0456      3.3597    
  2.8121      2.3961      2.1021      1.9173      1.8288      1.8288      1.9173      2.1021      2.3961      2.8121    
  3.3597      4.0456      4.8790      5.8766      7.0622      8.4578      10.067      11.855      15.791      17.651    
  19.140      20.101      20.432      20.101      19.140      17.651      15.791      13.758      11.741      9.8819    
  8.2565      6.8827      5.7399      4.7917      4.0051      3.3597      2.8464      2.4603      2.1948      2.0409    
  1.9906      2.0409      2.1948      2.4603      2.8464      3.3597      4.0051      4.7917      5.7399      6.8827    
  8.2564      9.8819      11.741      13.758      17.851      19.471      20.596      21.166      21.166      20.596    
  19.471      17.851      15.873      13.735      11.645      9.7542      8.1353      6.7937      5.6949      4.7917    
  4.0456      3.4353      2.9532      2.5973      2.3643      2.2497      2.2497      2.3643      2.5973      2.9532    
  3.4353      4.0456      4.7917      5.6949      6.7937      8.1353      9.7542      11.645      13.735      15.873    
  19.328      20.342      20.879      21.041      20.879      20.342      19.328      17.797      15.846      13.692    
  11.580      9.6895      8.0951      6.7937      5.7399      4.8790      4.1699      3.5924      3.1419      2.8200    
  2.6276      2.5637      2.6276      2.8200      3.1419      3.5924      4.1699      4.8790      5.7399      6.7937    
  8.0951      9.6895      11.580      13.692      15.847      17.797      19.461      19.557      19.477      19.477    
  19.557      19.461      18.867      17.610      15.782      13.660      11.557      9.6895      8.1353      6.8827    
  5.8766      5.0573      4.3836      3.8385      3.4224      3.1412      2.9996      2.9996      3.1412      3.4224    
  3.8385      4.3836      5.0573      5.8766      6.8827      8.1353      9.6895      11.557      13.660      15.782    
  17.610      18.867      17.654      16.801      16.429      16.801      17.654      18.376      18.387      17.457    
  15.750      13.660      11.580      9.7542      8.2564      7.0622      6.1072      5.3288      4.6890      4.1770    
  3.7997      3.5680      3.4899      3.5680      3.7997      4.1771      4.6890      5.3288      6.1071      7.0622    
  8.2564      9.7542      11.580      13.660      15.750      17.457      18.387      18.376      13.949      12.568    
  12.568      13.949      15.979      17.638      18.186      17.457      15.782      13.692      11.645      9.8819    
  8.4578      7.3308      6.4280      5.6880      5.0803      4.6034      4.2720      4.1018      4.1018      4.2720    
  4.6034      5.0803      5.6880      6.4280      7.3307      8.4578      9.8819      11.645      13.692      15.782    
  17.457      18.186      17.638      15.979      9.3190      8.2125      9.3191      12.109      15.313      17.638    
  18.387      17.610      15.847      13.735      11.741      10.067      8.7326      7.6779      6.8254      6.1202    
  5.5443      5.1084      4.8345      4.7410      4.8345      5.1084      5.5443      6.1202      6.8254      7.6779    
  8.7326      10.067      11.741      13.735      15.847      17.610      18.387      17.638      15.312      12.109    
  5.4401      5.4401      8.0481      12.109      15.979      18.376      18.867      17.797      15.873      13.758    
  11.855      10.297      9.0655      8.0844      7.2785      6.6070      6.0682      5.6853      5.4855      5.4855    
  5.6853      6.0682      6.6070      7.2785      8.0844      9.0655      10.297      11.855      13.758      15.873    
  17.797      18.867      18.376      15.979      12.109      8.0480      5.4401      8.2124      12.568      16.801    
  19.557      20.342      19.471      17.651      15.570      13.664      12.088      10.836      9.8323      8.9982    
  8.2916      7.7143      7.2974      7.0775      7.0775      7.2974      7.7143      8.2916      8.9982      9.8323    
  10.836      12.088      13.664      15.570      17.651      19.471      20.342      19.557      16.801      12.568    
  8.2125      5.4401      8.2124      11.738      15.955      19.336      20.978      20.825      19.409      17.434    
  15.453      13.743      12.366      11.271      10.374      9.6133      8.9684      8.4615      8.1336      8.0197    
  8.1335      8.4615      8.9684      9.6134      10.374      11.271      12.366      13.743      15.453      17.434    
  19.409      20.825      20.978      19.336      15.955      11.739      8.2125      6.8365      12.568      15.955    
  19.205      21.232      21.639      20.683      18.952      17.025      15.272      13.825      12.677      11.752    
  10.974      10.302      9.7399      9.3266      9.1060      9.1060      9.3266      9.7399      10.302      10.974    
  11.752      12.677      13.825      15.272      17.025      18.952      20.683      21.639      21.232      19.205    
  15.955      12.568      10.401      10.401      16.801      19.336      21.232      21.907      21.348      19.944    
  18.203      16.521      15.092      13.952      13.049      12.302      11.652      11.085      10.626      10.323    
  10.217      10.323      10.626      11.085      11.652      12.302      13.049      13.952      15.092      16.521    
  18.203      19.944      21.348      21.907      21.232      19.336      16.801      14.626      13.770      14.626    
  19.557      20.978      21.639      21.348      20.289      18.834      17.343      16.033      14.980      14.161    
  13.501      12.931      12.416      11.965      11.621      11.433      11.433      11.621      11.965      12.416    
  12.932      13.501      14.161      14.981      16.033      17.343      18.834      20.289      21.348      21.639    
  20.978      19.557      17.949      16.890      16.890      17.949      20.342      20.825      20.683      19.944    
  18.834      17.631      16.537      15.652      14.980      14.465      14.031      13.627      13.242      12.909    
  12.678      12.596      12.678      12.909      13.242      13.627      14.031      14.465      14.981      15.652    
  16.537      17.631      18.834      19.944      20.683      20.825      20.342      19.476      18.664      18.335    
  18.664      19.476      19.471      19.409      18.952      18.203      17.343      16.537      15.886      15.417    
  15.092      14.841      14.601      14.340      14.072      13.846      13.714      13.714      13.846      14.072    
  14.340      14.601      14.841      15.092      15.417      15.886      16.537      17.343      18.203      18.951    
  19.409      19.471      19.183      18.751      18.441      18.441      18.751      19.183      17.651      17.434    
  17.025      16.521      16.033      15.652      15.417      15.310      15.272      15.234      15.145      14.996    
  14.822      14.680      14.625      14.680      14.822      14.996      15.145      15.234      15.272      15.310    
  15.417      15.652      16.033      16.521      17.025      17.434      17.651      17.646      17.486      17.302    
  17.222      17.302      17.486      17.647      15.570      15.453      15.272      15.092      14.980      14.980    
  15.092      15.272      15.453      15.570      15.588      15.516      15.405      15.326      15.326      15.405    
  15.516      15.588      15.570      15.453      15.272      15.092      14.981      14.981      15.092      15.272    
  15.453      15.570      15.588      15.516      15.405      15.326      15.326      15.405      15.516      15.588    
  13.664      13.743      13.825      13.952      14.161      14.465      14.841      15.234      15.570      15.791    
  15.873      15.847      15.782      15.750      15.782      15.846      15.873      15.791      15.570      15.234    
  14.841      14.465      14.161      13.952      13.825      13.743      13.664      13.560      13.430      13.299    
  13.200      13.163      13.200      13.299      13.430      13.560      12.088      12.366      12.677      13.049    
  13.501      14.031      14.601      15.145      15.588      15.873      15.993      16.000      15.973      15.973    
  16.000      15.993      15.873      15.588      15.145      14.601      14.031      13.501      13.049      12.677    
  12.366      12.088      11.826      11.580      11.366      11.206      11.120      11.120      11.206      11.366    
  11.580      11.826      10.836      11.271      11.752      12.302      12.931      13.627      14.340      14.996    
  15.516      15.847      16.000      16.040      16.043      16.040      16.000      15.846      15.516      14.996    
  14.340      13.627      12.931      12.302      11.752      11.271      10.836      10.436      10.071      9.7577    
  9.5169      9.3657      9.3143      9.3657      9.5169      9.7577      10.071      10.436      9.8323      10.374    
  10.974      11.652      12.416      13.242      14.072      14.822      15.405      15.782      15.973      16.043    
  16.043      15.973      15.782      15.405      14.822      14.072      13.242      12.416      11.652      10.974    
  10.374      9.8323      9.3325      8.8755      8.4766      8.1577      7.9368      7.8244      7.8244      7.9368    
  8.1577      8.4766      8.8754      9.3325      8.9982      9.6133      10.302      11.085      11.965      12.909    
  13.846      14.680      15.326      15.750      15.973      16.040      15.973      15.750      15.326      14.680    
  13.846      12.909      11.965      11.085      10.302      9.6133      8.9982      8.4351      7.9179      7.4582    
  7.0772      6.7947      6.6224      6.5647      6.6224      6.7946      7.0772      7.4582      7.9180      8.4352    
  8.2916      8.9684      9.7399      10.626      11.621      12.678      13.714      14.625      15.326      15.782    
  16.000      16.000      15.782      15.326      14.625      13.714      12.678      11.621      10.626      9.7398    
  8.9684      8.2916      7.6830      7.1275      6.6289      6.2045      5.8742      5.6507      5.5388      5.5388    
  5.6507      5.8741      6.2045      6.6289      7.1275      7.6830      7.7143      8.4615      9.3266      10.323    
  11.433      12.596      13.714      14.680      15.405      15.846      15.993      15.846      15.405      14.680    
  13.714      12.596      11.433      10.323      9.3266      8.4615      7.7143      7.0570      6.4674      5.9397    
  5.4844      5.1183      4.8540      4.6962      4.6439      4.6962      4.8540      5.1183      5.4845      5.9398    
  6.4675      7.0571      7.2974      8.1336      9.1060      10.217      11.433      12.678      13.846      14.822    
  15.516      15.873      15.873      15.516      14.822      13.846      12.678      11.433      10.217      9.1060    
  8.1336      7.2974      6.5741      5.9383      5.3768      4.8919      4.4953      4.1973      4.0015      3.9053    
  3.9053      4.0015      4.1973      4.4953      4.8919      5.3768      5.9383      6.5741      7.0775      8.0197    
  9.1060      10.323      11.621      12.909      14.072      14.996      15.588      15.791      15.588      14.996    
  14.072      12.909      11.621      10.323      9.1060      8.0198      7.0776      6.2661      5.5631      4.9518    
  4.4282      3.9980      3.6677      3.4385      3.3055      3.2621      3.3055      3.4385      3.6677      3.9980    
  4.4283      4.9518      5.5631      6.2661      7.0775      8.1335      9.3266      10.626      11.965      13.242    
  14.340      15.145      15.570      15.570      15.145      14.340      13.242      11.965      10.626      9.3266    
  8.1336      7.0776      6.1601      5.3677      4.6858      4.1074      3.6334      3.2660      3.0034      2.8376    
  2.7581      2.7581      2.8376      3.0034      3.2660      3.6334      4.1074      4.6857      5.3676      6.1601    
  7.2974      8.4615      9.7399      11.085      12.416      13.627      14.601      15.234      15.453      15.234    
  14.601      13.627      12.416      11.085      9.7398      8.4615      7.2974      6.2661      5.3677      4.5951    
  3.9432      3.4107      2.9965      2.6957      2.4969      2.3858      2.3503      2.3858      2.4969      2.6957    
  2.9965      3.4107      3.9432      4.5951      5.3676      6.2661      7.7143      8.9684      10.302      11.652    
  12.932      14.031      14.841      15.272      15.272      14.841      14.031      12.931      11.652      10.302    
  8.9684      7.7143      6.5741      5.5631      4.6858      3.9432      3.3358      2.8616      2.5132      2.2768    
  2.1342      2.0681      2.0681      2.1342      2.2768      2.5132      2.8616      3.3358      3.9432      4.6857    
  5.5631      6.5741      8.2916      9.6134      10.974      12.302      13.501      14.465      15.092      15.310    
  15.092      14.465      13.501      12.302      10.974      9.6133      8.2916      7.0570      5.9383      4.9518    
  4.1074      3.4107      2.8616      2.4528      2.1694      1.9904      1.8942      1.8642      1.8942      1.9904    
  2.1694      2.4528      2.8616      3.4107      4.1074      4.9518      5.9383      7.0571      8.9982      10.374    
  11.752      13.049      14.161      14.981      15.417      15.417      14.981      14.161      13.049      11.752    
  10.374      8.9982      7.6830      6.4674      5.3768      4.4282      3.6334      2.9965      2.5132      2.1694    
  1.9438      1.8122      1.7528      1.7528      1.8122      1.9438      2.1694      2.5132      2.9965      3.6334    
  4.4283      5.3768      6.4675      7.6830      9.8323      11.271      12.677      13.952      14.981      15.652    
  15.886      15.652      14.981      13.952      12.677      11.271      9.8323      8.4351      7.1275      5.9397    
  4.8919      3.9980      3.2660      2.6957      2.2768      1.9904      1.8122      1.7176      1.6884      1.7176    
  1.8122      1.9904      2.2768      2.6957      3.2660      3.9980      4.8919      5.9398      7.1275      8.4352    
  10.836      12.366      13.825      15.092      16.033      16.537      16.537      16.033      15.092      13.825    
  12.366      10.836      9.3325      7.9179      6.6289      5.4844      4.4953      3.6677      3.0034      2.4969    
  2.1342      1.8942      1.7528      1.6884      1.6884      1.7528      1.8942      2.1342      2.4969      3.0034    
  3.6677      4.4953      5.4844      6.6289      7.9179      9.3325      12.088      13.743      15.272      16.521    
  17.343      17.631      17.343      16.521      15.272      13.743      12.088      10.436      8.8755      7.4582    
  6.2045      5.1183      4.1973      3.4385      2.8376      2.3858      2.0681      1.8642      1.7528      1.7176    
  1.7528      1.8642      2.0681      2.3858      2.8376      3.4385      4.1973      5.1183      6.2045      7.4582    
  8.8754      10.436      13.664      15.453      17.025      18.203      18.834      18.834      18.203      17.025    
  15.453      13.664      11.826      10.071      8.4766      7.0772      5.8742      4.8540      4.0015      3.3055    
  2.7581      2.3503      2.0681      1.8942      1.8122      1.8122      1.8942      2.0681      2.3503      2.7581    
  3.3055      4.0015      4.8540      5.8741      7.0772      8.4766      10.071      11.826      15.570      17.434    
  18.952      19.944      20.289      19.944      18.951      17.434      15.570      13.560      11.580      9.7577    
  8.1577      6.7947      5.6507      4.6962      3.9053      3.2621      2.7581      2.3858      2.1342      1.9904    
  1.9438      1.9904      2.1342      2.3858      2.7581      3.2621      3.9053      4.6962      5.6507      6.7946    
  8.1577      9.7577      11.580      13.560      17.651      19.409      20.683      21.348      21.348      20.683    
  19.409      17.651      15.588      13.430      11.366      9.5169      7.9368      6.6224      5.5388      4.6439    
  3.9053      3.3055      2.8376      2.4969      2.2768      2.1694      2.1694      2.2768      2.4969      2.8376    
  3.3055      3.9053      4.6439      5.5388      6.6224      7.9368      9.5169      11.366      13.430      15.588    
  19.471      20.825      21.639      21.907      21.639      20.825      19.471      17.646      15.516      13.299    
  11.206      9.3657      7.8244      6.5647      5.5388      4.6962      4.0015      3.4385      3.0034      2.6957    
  2.5132      2.4528      2.5132      2.6957      3.0034      3.4385      4.0015      4.6962      5.5388      6.5647    
  7.8244      9.3657      11.206      13.299      15.516      17.647      20.342      20.978      21.232      21.232    
  20.978      20.342      19.183      17.486      15.405      13.200      11.120      9.3143      7.8244      6.6224    
  5.6507      4.8540      4.1973      3.6677      3.2660      2.9965      2.8616      2.8616      2.9965      3.2660    
  3.6677      4.1973      4.8540      5.6507      6.6224      7.8244      9.3143      11.120      13.200      15.405    
  17.486      19.183      19.557      19.336      19.205      19.336      19.557      19.476      18.751      17.302    
  15.326      13.163      11.120      9.3657      7.9368      6.7946      5.8741      5.1183      4.4953      3.9980    
  3.6334      3.4107      3.3358      3.4107      3.6334      3.9980      4.4953      5.1183      5.8741      6.7946    
  7.9368      9.3657      11.120      13.163      15.326      17.302      18.751      19.476      16.801      15.955    