Carbon Diamond (band)                   
   3.57000000000000     
     0.000000    0.489488    0.489488
     0.489488    0.000000    0.489488
     0.489488    0.489488    0.000000
   C 
     2
Direct
  0.000000  0.000000  0.000000
  0.250000  0.250000  0.250000
 
   36   36   36
 0.39247852319E+01 0.54400869267E+01 0.93189966338E+01 0.13949106578E+02 0.17653870040E+02
 0.19460957544E+02 0.19328120071E+02 0.17851013408E+02 0.15791044010E+02 0.13735902301E+02
 0.11972356484E+02 0.10557143252E+02 0.94371184966E+01 0.85287625432E+01 0.77690323327E+01
 0.71370569201E+01 0.66490054914E+01 0.63373839811E+01 0.62300014554E+01 0.63373814216E+01
 0.66490016805E+01 0.71370537605E+01 0.77690312519E+01 0.85287636067E+01 0.94371201694E+01
 0.10557142964E+02 0.11972351773E+02 0.13735892010E+02 0.15791028973E+02 0.17850996290E+02
 0.19328104387E+02 0.19460946289E+02 0.17653864536E+02 0.13949106053E+02 0.93189987257E+01
 0.54400888790E+01 0.54400869267E+01 0.82124477363E+01 0.12567734864E+02 0.16800529714E+02
 0.19556648587E+02 0.20342344412E+02 0.19470612639E+02 0.17650721796E+02 0.15569996555E+02
 0.13663862844E+02 0.12088326362E+02 0.10836340292E+02 0.98323301530E+01 0.89982291953E+01
 0.82916019124E+01 0.77142823341E+01 0.72974117222E+01 0.70775404361E+01 0.70775371359E+01
 0.72974038747E+01 0.77142749021E+01 0.82915998224E+01 0.89982342367E+01 0.98323394692E+01
 0.10836347441E+02 0.12088324627E+02 0.13663849254E+02 0.15569974563E+02 0.17650701063E+02
 0.19470605625E+02 0.20342361054E+02 0.19556691314E+02 0.16800591125E+02 0.12567799333E+02
 0.82124965740E+01 0.54401051163E+01 0.93189966338E+01 0.12567734864E+02 0.16428623546E+02
 0.19476533582E+02 0.20879042800E+02 0.20595996683E+02 0.19140439519E+02 0.17179073625E+02
 0.15233585705E+02 0.13559215751E+02 0.12209091220E+02 0.11132390399E+02 0.10247911962E+02
 0.94950323414E+01 0.88568985495E+01 0.83559690371E+01 0.80323092475E+01 0.79200797730E+01
 0.80323017975E+01 0.83559592691E+01 0.88568936695E+01 0.94950371757E+01 0.10247925585E+02
 0.11132405862E+02 0.12209098838E+02 0.13559208558E+02 0.15233564389E+02 0.17179048253E+02
 0.19140426703E+02 0.20596012964E+02 0.20879096898E+02 0.19476620971E+02 0.16428726039E+02
 0.12567825832E+02 0.93190500912E+01 0.80480941702E+01 0.13949106578E+02 0.16800529714E+02
 0.19476533582E+02 0.21040572072E+02 0.21165834161E+02 0.20100587270E+02 0.18379146478E+02
 0.16519541653E+02 0.14841288954E+02 0.13456671349E+02 0.12351072037E+02 0.11453246982E+02
 0.10692402655E+02 0.10033233266E+02 0.94839107575E+01 0.90813411893E+01 0.88670731147E+01
 0.88670696087E+01 0.90813333795E+01 0.94839051533E+01 0.10033236202E+02 0.10692416136E+02
 0.11453266707E+02 0.12351088929E+02 0.13456676133E+02 0.14841277643E+02 0.16519519157E+02
 0.18379126190E+02 0.20100586291E+02 0.21165865916E+02 0.21040639440E+02 0.19476625764E+02
 0.16800624541E+02 0.13949177728E+02 0.12108998392E+02 0.12108971997E+02 0.17653870040E+02
 0.19556648587E+02 0.20879042800E+02 0.21165834161E+02 0.20431675080E+02 0.19020667351E+02
 0.17366677996E+02 0.15797015820E+02 0.14464789715E+02 0.13393502313E+02 0.12532183058E+02
 0.11809958509E+02 0.11177595020E+02 0.10626736505E+02 0.10184992138E+02 0.98955147930E+01
 0.97944331139E+01 0.98955114625E+01 0.10184989179E+02 0.10626739079E+02 0.11177606461E+02
 0.11809977792E+02 0.12532204477E+02 0.13393517789E+02 0.14464792746E+02 0.15797005222E+02
 0.17366659471E+02 0.19020651870E+02 0.20431674524E+02 0.21165855977E+02 0.20879086063E+02
 0.19556703347E+02 0.17653920458E+02 0.15978784984E+02 0.15312553357E+02 0.15978754827E+02
 0.19460957544E+02 0.20342344412E+02 0.20595996683E+02 0.20100587270E+02 0.19020667351E+02
 0.17662731412E+02 0.16308902754E+02 0.15123672957E+02 0.14160552381E+02 0.13393502313E+02
 0.12760715854E+02 0.12206081113E+02 0.11706035204E+02 0.11274850584E+02 0.10951160280E+02
 0.10776449966E+02 0.10776449837E+02 0.10951160968E+02 0.11274854670E+02 0.11706045184E+02
 0.12206097655E+02 0.12760736811E+02 0.13393523044E+02 0.14160567334E+02 0.15123677843E+02
 0.16308896340E+02 0.17662716103E+02 0.19020648271E+02 0.20100570223E+02 0.20595985890E+02
 0.20342341020E+02 0.19460959559E+02 0.18375572772E+02 0.17638445354E+02 0.17638443675E+02
 0.18375569157E+02 0.19328120071E+02 0.19470612639E+02 0.19140439519E+02 0.18379146478E+02
 0.17366677996E+02 0.16308902754E+02 0.15353131541E+02 0.14568309929E+02 0.13951731477E+02
 0.13456671349E+02 0.13027512559E+02 0.12629308205E+02 0.12261488565E+02 0.11952976573E+02
 0.11744925068E+02 0.11671269562E+02 0.11744927264E+02 0.11952981591E+02 0.12261497344E+02
 0.12629321458E+02 0.13027530186E+02 0.13456691992E+02 0.13951752391E+02 0.14568327275E+02
 0.15353141075E+02 0.16308900805E+02 0.17366662483E+02 0.18379117695E+02 0.19140400458E+02
 0.19470568690E+02 0.19328078123E+02 0.18866708204E+02 0.18387162421E+02 0.18186139249E+02
 0.18387180484E+02 0.18866741093E+02 0.17851013408E+02 0.17650721796E+02 0.17179073625E+02
 0.16519541653E+02 0.15797015820E+02 0.15123672957E+02 0.14568309929E+02 0.14145307050E+02
 0.13825254987E+02 0.13559215751E+02 0.13305855832E+02 0.13050316578E+02 0.12807948651E+02
 0.12613811472E+02 0.12505133299E+02 0.12505134391E+02 0.12613814813E+02 0.12807954487E+02
 0.13050325439E+02 0.13305868473E+02 0.13559232770E+02 0.13825276143E+02 0.14145330527E+02
 0.14568331942E+02 0.15123688094E+02 0.15797018246E+02 0.16519526961E+02 0.17179040724E+02
 0.17650674118E+02 0.17850958829E+02 0.17796856263E+02 0.17609731383E+02 0.17456666128E+02
 0.17456679108E+02 0.17609767312E+02 0.17796906993E+02 0.15791044010E+02 0.15569996555E+02
 0.15233585705E+02 0.14841288954E+02 0.14464789715E+02 0.14160552381E+02 0.13951731477E+02
 0.13825254987E+02 0.13743373547E+02 0.13663862844E+02 0.13559811609E+02 0.13430421159E+02
 0.13298909825E+02 0.13199828222E+02 0.13162890348E+02 0.13199828168E+02 0.13298910317E+02
 0.13430423389E+02 0.13559817247E+02 0.13663873661E+02 0.13743390740E+02 0.13825278356E+02
 0.13951758791E+02 0.14160579300E+02 0.14464810523E+02 0.14841298041E+02 0.15233579417E+02
 0.15569974762E+02 0.15791010745E+02 0.15873170032E+02 0.15846484895E+02 0.15781746721E+02
 0.15750264385E+02 0.15781765103E+02 0.15846516799E+02 0.15873207211E+02 0.13735902301E+02
 0.13663862844E+02 0.13559215751E+02 0.13456671349E+02 0.13393502313E+02 0.13393502313E+02
 0.13456671349E+02 0.13559215751E+02 0.13663862844E+02 0.13735902301E+02 0.13757729884E+02
 0.13735164771E+02 0.13692366859E+02 0.13660238965E+02 0.13660236932E+02 0.13692361646E+02
 0.13735158792E+02 0.13757726399E+02 0.13735904493E+02 0.13663872900E+02 0.13559234193E+02
 0.13456696789E+02 0.13393531726E+02 0.13393531726E+02 0.13456696789E+02 0.13559234193E+02
 0.13663872900E+02 0.13735904493E+02 0.13757726399E+02 0.13735158792E+02 0.13692361646E+02
 0.13660236932E+02 0.13660238965E+02 0.13692366859E+02 0.13735164771E+02 0.13757729884E+02
 0.11972356484E+02 0.12088326362E+02 0.12209091220E+02 0.12351072037E+02 0.12532183058E+02
 0.12760715854E+02 0.13027512559E+02 0.13305855832E+02 0.13559811609E+02 0.13757729884E+02
 0.13884551357E+02 0.13945829926E+02 0.13964746953E+02 0.13967324503E+02 0.13964738900E+02
 0.13945816869E+02 0.13884538269E+02 0.13757721886E+02 0.13559812248E+02 0.13305866114E+02
 0.13027531021E+02 0.12760739564E+02 0.12532209004E+02 0.12351098250E+02 0.12209117148E+02
 0.12088352406E+02 0.11972383003E+02 0.11854795893E+02 0.11741165645E+02 0.11644821102E+02
 0.11580159090E+02 0.11557402662E+02 0.11580148728E+02 0.11644802314E+02 0.11741141534E+02
 0.11854769547E+02 0.10557143252E+02 0.10836340292E+02 0.11132390399E+02 0.11453246982E+02
 0.11809958509E+02 0.12206081113E+02 0.12629308205E+02 0.13050316578E+02 0.13430421159E+02
 0.13735164771E+02 0.13945829926E+02 0.14066555099E+02 0.14117951211E+02 0.14117945082E+02
 0.14066538950E+02 0.13945809543E+02 0.13735147131E+02 0.13430411698E+02 0.13050317309E+02
 0.12629317486E+02 0.12206095069E+02 0.11809973368E+02 0.11453261141E+02 0.11132405184E+02
 0.10836359042E+02 0.10557169152E+02 0.10296793482E+02 0.10066729509E+02 0.98819430067E+01
 0.97542287461E+01 0.96895184563E+01 0.96895088858E+01 0.97542025388E+01 0.98819066953E+01
 0.10066691157E+02 0.10296759759E+02 0.94371184966E+01 0.98323301530E+01 0.10247911962E+02
 0.10692402655E+02 0.11177595020E+02 0.11706035204E+02 0.12261488565E+02 0.12807948651E+02
 0.13298909825E+02 0.13692366859E+02 0.13964746953E+02 0.14117951211E+02 0.14166422491E+02
 0.14117937072E+02 0.13964723747E+02 0.13692342505E+02 0.13298891677E+02 0.12807940476E+02
 0.12261489326E+02 0.11706040161E+02 0.11177598567E+02 0.10692401510E+02 0.10247907106E+02
 0.98323265513E+01 0.94371226592E+01 0.90655324932E+01 0.87326036858E+01 0.84578425962E+01
 0.82564576636E+01 0.81353082169E+01 0.80951059388E+01 0.81352891019E+01 0.82564256054E+01
 0.84578074244E+01 0.87325749746E+01 0.90655159736E+01 0.85287625432E+01 0.89982291953E+01
 0.94950323414E+01 0.10033233266E+02 0.10626736505E+02 0.11274850584E+02 0.11952976573E+02
 0.12613811472E+02 0.13199828222E+02 0.13660238965E+02 0.13967324503E+02 0.14117945082E+02
 0.14117937072E+02 0.13967303402E+02 0.13660212229E+02 0.13199804454E+02 0.12613796589E+02
 0.11952971311E+02 0.11274850528E+02 0.10626734577E+02 0.10033223507E+02 0.94950131506E+01
 0.89982044495E+01 0.85287400335E+01 0.80843834382E+01 0.76779329582E+01 0.73307681037E+01
 0.70622541573E+01 0.68827047932E+01 0.67937408017E+01 0.67937332356E+01 0.68826853859E+01
 0.70622313350E+01 0.73307517457E+01 0.76779301504E+01 0.80843955758E+01 0.77690323327E+01
 0.82916019124E+01 0.88568985495E+01 0.94839107575E+01 0.10184992138E+02 0.10951160280E+02
 0.11744925068E+02 0.12505133299E+02 0.13162890348E+02 0.13660236932E+02 0.13964738900E+02
 0.14066538950E+02 0.13964723747E+02 0.13660212229E+02 0.13162864737E+02 0.12505114518E+02
 0.11744916471E+02 0.10951159441E+02 0.10184992173E+02 0.94839037387E+01 0.88568794231E+01
 0.82915710727E+01 0.77689956599E+01 0.72784753028E+01 0.68253559850E+01 0.64279618831E+01
 0.61071605795E+01 0.58765934237E+01 0.57398807902E+01 0.56948620916E+01 0.57398733406E+01
 0.58765837078E+01 0.61071564585E+01 0.64279700674E+01 0.68253786865E+01 0.72785089567E+01
 0.71370569201E+01 0.77142823341E+01 0.83559690371E+01 0.90813411893E+01 0.98955147930E+01
 0.10776449966E+02 0.11671269562E+02 0.12505134391E+02 0.13199828168E+02 0.13692361646E+02
 0.13945816869E+02 0.13945809543E+02 0.13692342505E+02 0.13199804454E+02 0.12505114518E+02
 0.11671259381E+02 0.10776450222E+02 0.98955208929E+01 0.90813453568E+01 0.83559638619E+01
 0.77142640817E+01 0.71370271413E+01 0.66069532863E+01 0.61202019671E+01 0.56880010538E+01
 0.53287542091E+01 0.50572929466E+01 0.48790098086E+01 0.47916770529E+01 0.47916761083E+01
 0.48790088426E+01 0.50572965288E+01 0.53287670282E+01 0.56880250741E+01 0.61202347746E+01
 0.66069885217E+01 0.66490054914E+01 0.72974117222E+01 0.80323092475E+01 0.88670731147E+01
 0.97944331139E+01 0.10776449837E+02 0.11744927264E+02 0.12613814813E+02 0.13298910317E+02
 0.13735158792E+02 0.13884538269E+02 0.13735147131E+02 0.13298891677E+02 0.12613796589E+02
 0.11744916471E+02 0.10776450222E+02 0.97944436877E+01 0.88670886759E+01 0.80323226123E+01
 0.72974166428E+01 0.66489990084E+01 0.60682216337E+01 0.55442873299E+01 0.50802304831E+01
 0.46889369866E+01 0.43835702545E+01 0.41699278921E+01 0.40456223427E+01 0.40050911868E+01
 0.40456249087E+01 0.41699344642E+01 0.43835825942E+01 0.46889555602E+01 0.50802532790E+01
 0.55443098677E+01 0.60682383487E+01 0.63373839811E+01 0.70775404361E+01 0.79200797730E+01
 0.88670696087E+01 0.98955114625E+01 0.10951160968E+02 0.11952981591E+02 0.12807954487E+02
 0.13430423389E+02 0.13757726399E+02 0.13757721886E+02 0.13430411698E+02 0.12807940476E+02
 0.11952971311E+02 0.10951159441E+02 0.98955208929E+01 0.88670886759E+01 0.79201042079E+01
 0.70775645770E+01 0.63374026615E+01 0.56853187643E+01 0.51083739602E+01 0.46034263949E+01
 0.41770340266E+01 0.38385348680E+01 0.35923547339E+01 0.34352644324E+01 0.33596872202E+01
 0.33596894862E+01 0.34352709898E+01 0.35923647346E+01 0.38385465983E+01 0.41770448049E+01
 0.46034329009E+01 0.51083730769E+01 0.56853087140E+01 0.62300014554E+01 0.70775371359E+01
 0.80323017975E+01 0.90813333795E+01 0.10184989179E+02 0.11274854670E+02 0.12261497344E+02
 0.13050325439E+02 0.13559817247E+02 0.13735904493E+02 0.13559812248E+02 0.13050317309E+02
 0.12261489326E+02 0.11274850528E+02 0.10184992173E+02 0.90813453568E+01 0.80323226123E+01
 0.70775645770E+01 0.62300317083E+01 0.54854880069E+01 0.48345563362E+01 0.42720345973E+01
 0.37996786083E+01 0.34223874559E+01 0.31418783519E+01 0.29531760260E+01 0.28463932241E+01
 0.28120797143E+01 0.28463981458E+01 0.29531838333E+01 0.31418855664E+01 0.34223901729E+01
 0.37996736428E+01 0.42720204358E+01 0.48345336275E+01 0.54854594632E+01 0.63373814216E+01
 0.72974038747E+01 0.83559592691E+01 0.94839051533E+01 0.10626739079E+02 0.11706045184E+02
 0.12629321458E+02 0.13305868473E+02 0.13663873661E+02 0.13663872900E+02 0.13305866114E+02
 0.12629317486E+02 0.11706040161E+02 0.10626734577E+02 0.94839037387E+01 0.83559638619E+01
 0.72974166428E+01 0.63374026615E+01 0.54854880069E+01 0.47410489256E+01 0.41018088238E+01
 0.35679966709E+01 0.31411724895E+01 0.28200271548E+01 0.25972458227E+01 0.24603204098E+01
 0.23960522753E+01 0.23960547282E+01 0.24603262534E+01 0.25972511336E+01 0.28200272119E+01
 0.31411637096E+01 0.35679780899E+01 0.41017825432E+01 0.47410193914E+01 0.54854604620E+01
 0.66490016805E+01 0.77142749021E+01 0.88568936695E+01 0.10033236202E+02 0.11177606461E+02
 0.12206097655E+02 0.13027530186E+02 0.13559232770E+02 0.13743390740E+02 0.13559234193E+02
 0.13027531021E+02 0.12206095069E+02 0.11177598567E+02 0.10033223507E+02 0.88568794231E+01
 0.77142640817E+01 0.66489990084E+01 0.56853187643E+01 0.48345563362E+01 0.41018088238E+01
 0.34898915382E+01 0.29996078142E+01 0.26275902572E+01 0.23643420943E+01 0.21948127376E+01
 0.21021018895E+01 0.20728845739E+01 0.21021055340E+01 0.21948170752E+01 0.23643426704E+01
 0.26275833401E+01 0.29995923680E+01 0.34898700220E+01 0.41017864355E+01 0.48345390240E+01
 0.56853108873E+01 0.71370537605E+01 0.82915998224E+01 0.94950371757E+01 0.10692416136E+02
 0.11809977792E+02 0.12760736811E+02 0.13456691992E+02 0.13825276143E+02 0.13825278356E+02
 0.13456696789E+02 0.12760739564E+02 0.11809973368E+02 0.10692401510E+02 0.94950131506E+01
 0.82915710727E+01 0.71370271413E+01 0.60682216337E+01 0.51083739602E+01 0.42720345973E+01
 0.35679966709E+01 0.29996078142E+01 0.25636684009E+01 0.22496919384E+01 0.20408698396E+01
 0.19172705545E+01 0.18608602837E+01 0.18608617007E+01 0.19172735108E+01 0.20408711941E+01
 0.22496885563E+01 0.25636591784E+01 0.29995948228E+01 0.35679847738E+01 0.42720296135E+01
 0.51083801682E+01 0.60682397550E+01 0.77690312519E+01 0.89982342367E+01 0.10247925585E+02
 0.11453266707E+02 0.12532204477E+02 0.13393523044E+02 0.13951752391E+02 0.14145330527E+02
 0.13951758791E+02 0.13393531726E+02 0.12532209004E+02 0.11453261141E+02 0.10247907106E+02
 0.89982044495E+01 0.77689956599E+01 0.66069532863E+01 0.55442873299E+01 0.46034263949E+01
 0.37996786083E+01 0.31411724895E+01 0.26275902572E+01 0.22496919384E+01 0.19905930124E+01
 0.18287830896E+01 0.17426543360E+01 0.17159671674E+01 0.17426555170E+01 0.18287840154E+01
 0.19905918524E+01 0.22496879737E+01 0.26275849890E+01 0.31411696453E+01 0.37996828720E+01
 0.46034413431E+01 0.55443135068E+01 0.66069873726E+01 0.85287636067E+01 0.98323394692E+01
 0.11132405862E+02 0.12351088929E+02 0.13393517789E+02 0.14160567334E+02 0.14568327275E+02
 0.14568331942E+02 0.14160579300E+02 0.13393531726E+02 0.12351098250E+02 0.11132405184E+02
 0.98323265513E+01 0.85287400335E+01 0.72784753028E+01 0.61202019671E+01 0.50802304831E+01
 0.41770340266E+01 0.34223874559E+01 0.28200271548E+01 0.23643420943E+01 0.20408698396E+01
 0.18287830896E+01 0.17049177996E+01 0.16489771126E+01 0.16489770296E+01 0.17049173589E+01
 0.18287819866E+01 0.20408682902E+01 0.23643413942E+01 0.28200297107E+01 0.34223960822E+01
 0.41770506974E+01 0.50802550719E+01 0.61202316192E+01 0.72785048782E+01 0.94371201694E+01
 0.10836347441E+02 0.12209098838E+02 0.13456676133E+02 0.14464792746E+02 0.15123677843E+02
 0.15353141075E+02 0.15123688094E+02 0.14464810523E+02 0.13456696789E+02 0.12209117148E+02
 0.10836359042E+02 0.94371226592E+01 0.80843834382E+01 0.68253559850E+01 0.56880010538E+01
 0.46889369866E+01 0.38385348680E+01 0.31418783519E+01 0.25972458227E+01 0.21948127376E+01
 0.19172705545E+01 0.17426543360E+01 0.16489771126E+01 0.16197918251E+01 0.16489755180E+01
 0.17426519199E+01 0.19172687198E+01 0.21948132174E+01 0.25972502309E+01 0.31418876426E+01
 0.38385488390E+01 0.46889540075E+01 0.56880181890E+01 0.68253695764E+01 0.80843900555E+01
 0.10557142964E+02 0.12088324627E+02 0.13559208558E+02 0.14841277643E+02 0.15797005222E+02
 0.16308896340E+02 0.16308900805E+02 0.15797018246E+02 0.14841298041E+02 0.13559234193E+02
 0.12088352406E+02 0.10557169152E+02 0.90655324932E+01 0.76779329582E+01 0.64279618831E+01
 0.53287542091E+01 0.43835702545E+01 0.35923547339E+01 0.29531760260E+01 0.24603204098E+01
 0.21021018895E+01 0.18608602837E+01 0.17159671674E+01 0.16489770296E+01 0.16489755180E+01
 0.17159635199E+01 0.18608567645E+01 0.21021011102E+01 0.24603241034E+01 0.29531841322E+01
 0.35923651787E+01 0.43835795119E+01 0.53287584252E+01 0.64279581229E+01 0.76779201205E+01
 0.90655115982E+01 0.11972351773E+02 0.13663849254E+02 0.15233564389E+02 0.16519519157E+02
 0.17366659471E+02 0.17662716103E+02 0.17366662483E+02 0.16519526961E+02 0.15233579417E+02
 0.13663872900E+02 0.11972383003E+02 0.10296793482E+02 0.87326036858E+01 0.73307681037E+01
 0.61071605795E+01 0.50572929466E+01 0.41699278921E+01 0.34352644324E+01 0.28463932241E+01
 0.23960522753E+01 0.20728845739E+01 0.18608617007E+01 0.17426555170E+01 0.17049173589E+01
 0.17426519199E+01 0.18608567645E+01 0.20728815984E+01 0.23960537572E+01 0.28463992803E+01
 0.34352722799E+01 0.41699326874E+01 0.50572896579E+01 0.61071460784E+01 0.73307425535E+01
 0.87325706111E+01 0.10296758496E+02 0.13735892010E+02 0.15569974563E+02 0.17179048253E+02
 0.18379126190E+02 0.19020651870E+02 0.19020648271E+02 0.18379117695E+02 0.17179040724E+02
 0.15569974762E+02 0.13735904493E+02 0.11854795893E+02 0.10066729509E+02 0.84578425962E+01
 0.70622541573E+01 0.58765934237E+01 0.48790098086E+01 0.40456223427E+01 0.33596872202E+01
 0.28120797143E+01 0.23960547282E+01 0.21021055340E+01 0.19172735108E+01 0.18287840154E+01
 0.18287819866E+01 0.19172687198E+01 0.21021011102E+01 0.23960537572E+01 0.28120832132E+01
 0.33596930517E+01 0.40456257175E+01 0.48790052585E+01 0.58765773814E+01 0.70622269368E+01
 0.84578087775E+01 0.10066696445E+02 0.11854770914E+02 0.15791028973E+02 0.17650701063E+02
 0.19140426703E+02 0.20100586291E+02 0.20431674524E+02 0.20100570223E+02 0.19140400458E+02
 0.17650674118E+02 0.15791010745E+02 0.13757726399E+02 0.11741165645E+02 0.98819430067E+01
 0.82564576636E+01 0.68827047932E+01 0.57398807902E+01 0.47916770529E+01 0.40050911868E+01
 0.33596894862E+01 0.28463981458E+01 0.24603262534E+01 0.21948170752E+01 0.20408711941E+01
 0.19905918524E+01 0.20408682902E+01 0.21948132174E+01 0.24603241034E+01 0.28463992803E+01
 0.33596930517E+01 0.40050938293E+01 0.47916743195E+01 0.57398694280E+01 0.68826848519E+01
 0.82564332909E+01 0.98819213754E+01 0.11741154292E+02 0.13757730038E+02 0.17850996290E+02
 0.19470605625E+02 0.20596012964E+02 0.21165865916E+02 0.21165855977E+02 0.20595985890E+02
 0.19470568690E+02 0.17850958829E+02 0.15873170032E+02 0.13735158792E+02 0.11644821102E+02
 0.97542287461E+01 0.81353082169E+01 0.67937408017E+01 0.56948620916E+01 0.47916761083E+01
 0.40456249087E+01 0.34352709898E+01 0.29531838333E+01 0.25972511336E+01 0.23643426704E+01
 0.22496885563E+01 0.22496879737E+01 0.23643413942E+01 0.25972502309E+01 0.29531841322E+01
 0.34352722799E+01 0.40456257175E+01 0.47916743195E+01 0.56948562057E+01 0.67937312492E+01
 0.81352979898E+01 0.97542228637E+01 0.11644824915E+02 0.13735175724E+02 0.15873199676E+02
 0.19328104387E+02 0.20342361054E+02 0.20879096898E+02 0.21040639440E+02 0.20879086063E+02
 0.20342341020E+02 0.19328078123E+02 0.17796856263E+02 0.15846484895E+02 0.13692361646E+02
 0.11580159090E+02 0.96895184563E+01 0.80951059388E+01 0.67937332356E+01 0.57398733406E+01
 0.48790088426E+01 0.41699344642E+01 0.35923647346E+01 0.31418855664E+01 0.28200272119E+01
 0.26275833401E+01 0.25636591784E+01 0.26275849890E+01 0.28200297107E+01 0.31418876426E+01
 0.35923651787E+01 0.41699326874E+01 0.48790052585E+01 0.57398694280E+01 0.67937312492E+01
 0.80951083387E+01 0.96895272245E+01 0.11580175116E+02 0.13692384364E+02 0.15846512242E+02
 0.17796884997E+02 0.19460946289E+02 0.19556691314E+02 0.19476620971E+02 0.19476625764E+02
 0.19556703347E+02 0.19460959559E+02 0.18866708204E+02 0.17609731383E+02 0.15781746721E+02
 0.13660236932E+02 0.11557402662E+02 0.96895088858E+01 0.81352891019E+01 0.68826853859E+01
 0.58765837078E+01 0.50572965288E+01 0.43835825942E+01 0.38385465983E+01 0.34223901729E+01
 0.31411637096E+01 0.29995923680E+01 0.29995948228E+01 0.31411696453E+01 0.34223960822E+01
 0.38385488390E+01 0.43835795119E+01 0.50572896579E+01 0.58765773814E+01 0.68826848519E+01
 0.81352979898E+01 0.96895272245E+01 0.11557426440E+02 0.13660259506E+02 0.15781761503E+02
 0.17609734645E+02 0.18866700716E+02 0.17653864536E+02 0.16800591125E+02 0.16428726039E+02
 0.16800624541E+02 0.17653920458E+02 0.18375572772E+02 0.18387162421E+02 0.17456666128E+02
 0.15750264385E+02 0.13660238965E+02 0.11580148728E+02 0.97542025388E+01 0.82564256054E+01
 0.70622313350E+01 0.61071564585E+01 0.53287670282E+01 0.46889555602E+01 0.41770448049E+01
 0.37996736428E+01 0.35679780899E+01 0.34898700220E+01 0.35679847738E+01 0.37996828720E+01
 0.41770506974E+01 0.46889540075E+01 0.53287584252E+01 0.61071460784E+01 0.70622269368E+01
 0.82564332909E+01 0.97542228637E+01 0.11580175116E+02 0.13660259506E+02 0.15750266528E+02
 0.17456642364E+02 0.18387114419E+02 0.18375511962E+02 0.13949106053E+02 0.12567799333E+02
 0.12567825832E+02 0.13949177728E+02 0.15978784984E+02 0.17638445354E+02 0.18186139249E+02
 0.17456679108E+02 0.15781765103E+02 0.13692366859E+02 0.11644802314E+02 0.98819066953E+01
 0.84578074244E+01 0.73307517457E+01 0.64279700674E+01 0.56880250741E+01 0.50802532790E+01
 0.46034329009E+01 0.42720204358E+01 0.41017825432E+01 0.41017864355E+01 0.42720296135E+01
 0.46034413431E+01 0.50802550719E+01 0.56880181890E+01 0.64279581229E+01 0.73307425535E+01
 0.84578087775E+01 0.98819213754E+01 0.11644824915E+02 0.13692384364E+02 0.15781761503E+02
 0.17456642364E+02 0.18186067663E+02 0.17638350347E+02 0.15978688707E+02 0.93189987257E+01
 0.82124965740E+01 0.93190500912E+01 0.12108998392E+02 0.15312553357E+02 0.17638443675E+02
 0.18387180484E+02 0.17609767312E+02 0.15846516799E+02 0.13735164771E+02 0.11741141534E+02
 0.10066691157E+02 0.87325749746E+01 0.76779301504E+01 0.68253786865E+01 0.61202347746E+01
 0.55443098677E+01 0.51083730769E+01 0.48345336275E+01 0.47410193914E+01 0.48345390240E+01
 0.51083801682E+01 0.55443135068E+01 0.61202316192E+01 0.68253695764E+01 0.76779201205E+01
 0.87325706111E+01 0.10066696445E+02 0.11741154292E+02 0.13735175724E+02 0.15846512242E+02
 0.17609734645E+02 0.18387114419E+02 0.17638350347E+02 0.15312450251E+02 0.12108909646E+02
 0.54400888790E+01 0.54401051163E+01 0.80480941702E+01 0.12108971997E+02 0.15978754827E+02
 0.18375569157E+02 0.18866741093E+02 0.17796906993E+02 0.15873207211E+02 0.13757729884E+02
 0.11854769547E+02 0.10296759759E+02 0.90655159736E+01 0.80843955758E+01 0.72785089567E+01
 0.66069885217E+01 0.60682383487E+01 0.56853087140E+01 0.54854594632E+01 0.54854604620E+01
 0.56853108873E+01 0.60682397550E+01 0.66069873726E+01 0.72785048782E+01 0.80843900555E+01
 0.90655115982E+01 0.10296758496E+02 0.11854770914E+02 0.13757730038E+02 0.15873199676E+02
 0.17796884997E+02 0.18866700716E+02 0.18375511962E+02 0.15978688707E+02 0.12108909646E+02
 0.80480494987E+01 0.54400869267E+01 0.82124477363E+01 0.12567734864E+02 0.16800529714E+02
 0.19556648587E+02 0.20342344412E+02 0.19470612639E+02 0.17650721796E+02 0.15569996555E+02
 0.13663862844E+02 0.12088326362E+02 0.10836340292E+02 0.98323301530E+01 0.89982291953E+01
 0.82916019124E+01 0.77142823341E+01 0.72974117222E+01 0.70775404361E+01 0.70775371359E+01
 0.72974038747E+01 0.77142749021E+01 0.82915998224E+01 0.89982342367E+01 0.98323394692E+01
 0.10836347441E+02 0.12088324627E+02 0.13663849254E+02 0.15569974563E+02 0.17650701063E+02
 0.19470605625E+02 0.20342361054E+02 0.19556691314E+02 0.16800591125E+02 0.12567799333E+02
 0.82124965740E+01 0.54401051163E+01 0.82124477363E+01 0.11738416796E+02 0.15955338769E+02
 0.19335646075E+02 0.20978361348E+02 0.20825045904E+02 0.19409332571E+02 0.17433820057E+02
 0.15453037755E+02 0.13743373547E+02 0.12365845624E+02 0.11270688032E+02 0.10374428678E+02
 0.96133489910E+01 0.89684096121E+01 0.84615335049E+01 0.81335558100E+01 0.80197254947E+01
 0.81335470213E+01 0.84615217167E+01 0.89684029833E+01 0.96133530685E+01 0.10374442614E+02
 0.11270704254E+02 0.12365853480E+02 0.13743365365E+02 0.15453014334E+02 0.17433792585E+02
 0.19409319481E+02 0.20825065504E+02 0.20978423203E+02 0.19335744977E+02 0.15955454288E+02
 0.11738519122E+02 0.82125078117E+01 0.68365241606E+01 0.12567734864E+02 0.15955338769E+02
 0.19204650244E+02 0.21231552057E+02 0.21638643563E+02 0.20682536429E+02 0.18951525949E+02
 0.17025447572E+02 0.15271863471E+02 0.13825254987E+02 0.12676824650E+02 0.11752278449E+02
 0.10974279501E+02 0.10301644333E+02 0.97398612654E+01 0.93266080367E+01 0.91059806981E+01
 0.91059754343E+01 0.93265957862E+01 0.97398505841E+01 0.10301643703E+02 0.10974291996E+02
 0.11752299176E+02 0.12676842648E+02 0.13825258996E+02 0.15271848866E+02 0.17025420886E+02
 0.18951504290E+02 0.20682541344E+02 0.21638691615E+02 0.21231646119E+02 0.19204775584E+02
 0.15955466138E+02 0.12567829849E+02 0.10401172706E+02 0.10401137563E+02 0.16800529714E+02
 0.19335646075E+02 0.21231552057E+02 0.21907196359E+02 0.21348146543E+02 0.19943831190E+02
 0.18202535141E+02 0.16521100841E+02 0.15091744737E+02 0.13951731477E+02 0.13048535147E+02
 0.12301968019E+02 0.11652352258E+02 0.11084772363E+02 0.10626174227E+02 0.10323457945E+02
 0.10217305705E+02 0.10323449249E+02 0.10626162866E+02 0.11084766930E+02 0.11652358816E+02
 0.12301986152E+02 0.13048557425E+02 0.13951746915E+02 0.15091744769E+02 0.16521084882E+02
 0.18202512777E+02 0.19943819447E+02 0.21348162976E+02 0.21907250777E+02 0.21231640585E+02
 0.19335750477E+02 0.16800622718E+02 0.14626112092E+02 0.13769573809E+02 0.14626057323E+02
 0.19556648587E+02 0.20978361348E+02 0.21638643563E+02 0.21348146543E+02 0.20288900944E+02
 0.18834048535E+02 0.17343375450E+02 0.16033460646E+02 0.14980495922E+02 0.14160552381E+02
 0.13501243589E+02 0.12931491208E+02 0.12415942602E+02 0.11964947945E+02 0.11621078316E+02
 0.11433429655E+02 0.11433425774E+02 0.11621069224E+02 0.11964939916E+02 0.12415942199E+02
 0.12931501552E+02 0.13501262294E+02 0.14160572301E+02 0.14980508516E+02 0.16033460384E+02
 0.17343363129E+02 0.18834031731E+02 0.20288891164E+02 0.21348154163E+02 0.21638672786E+02
 0.20978407511E+02 0.19556699183E+02 0.17949392343E+02 0.16889704914E+02 0.16889690178E+02
 0.17949353158E+02 0.20342344412E+02 0.20825045904E+02 0.20682536429E+02 0.19943831190E+02
 0.18834048535E+02 0.17630696592E+02 0.16537217888E+02 0.15652389816E+02 0.14980495922E+02
 0.14464789715E+02 0.14031088660E+02 0.13626782309E+02 0.13242287028E+02 0.12908951213E+02
 0.12678399766E+02 0.12595686085E+02 0.12678393558E+02 0.12908942232E+02 0.13242280537E+02
 0.13626782914E+02 0.14031098082E+02 0.14464805818E+02 0.14980513448E+02 0.15652402496E+02
 0.16537220967E+02 0.17630688689E+02 0.18834032029E+02 0.19943811034E+02 0.20682518003E+02
 0.20825032903E+02 0.20342337725E+02 0.19475536828E+02 0.18664476926E+02 0.18335333854E+02
 0.18664476949E+02 0.19475538833E+02 0.19470612639E+02 0.19409332571E+02 0.18951525949E+02
 0.18202535141E+02 0.17343375450E+02 0.16537217888E+02 0.15886311498E+02 0.15416897139E+02
 0.15091744737E+02 0.14841288954E+02 0.14600832177E+02 0.14339875080E+02 0.14072394616E+02
 0.13845539033E+02 0.13714138648E+02 0.13714134932E+02 0.13845529313E+02 0.14072382679E+02
 0.14339865757E+02 0.14600829646E+02 0.14841295225E+02 0.15091758800E+02 0.15416915059E+02
 0.15886327421E+02 0.16537225633E+02 0.17343370231E+02 0.18202514927E+02 0.18951492113E+02
 0.19409289708E+02 0.19470567621E+02 0.19183319612E+02 0.18750799591E+02 0.18440531917E+02
 0.18440541463E+02 0.18750826505E+02 0.19183359067E+02 0.17650721796E+02 0.17433820057E+02
 0.17025447572E+02 0.16521100841E+02 0.16033460646E+02 0.15652389816E+02 0.15416897139E+02
 0.15309553823E+02 0.15271863471E+02 0.15233585705E+02 0.15144599904E+02 0.14996181575E+02
 0.14821768122E+02 0.14679900296E+02 0.14625249813E+02 0.14679890394E+02 0.14821751189E+02
 0.14996162593E+02 0.15144584627E+02 0.15233579038E+02 0.15271867977E+02 0.15309568760E+02
 0.15416918345E+02 0.15652410557E+02 0.16033473292E+02 0.16521098973E+02 0.17025427958E+02
 0.17433783896E+02 0.17650674826E+02 0.17646475599E+02 0.17486159524E+02 0.17301681454E+02
 0.17222362574E+02 0.17301704046E+02 0.17486199589E+02 0.17646524266E+02 0.15569996555E+02
 0.15453037755E+02 0.15271863471E+02 0.15091744737E+02 0.14980495922E+02 0.14980495922E+02
 0.15091744737E+02 0.15271863471E+02 0.15453037755E+02 0.15569996555E+02 0.15587781575E+02
 0.15515561842E+02 0.15405414308E+02 0.15326388618E+02 0.15326381340E+02 0.15405394397E+02
 0.15515534546E+02 0.15587754069E+02 0.15569976020E+02 0.15453029457E+02 0.15271869364E+02
 0.15091762942E+02 0.14980521240E+02 0.14980521240E+02 0.15091762942E+02 0.15271869364E+02
 0.15453029457E+02 0.15569976020E+02 0.15587754069E+02 0.15515534546E+02 0.15405394397E+02
 0.15326381340E+02 0.15326388618E+02 0.15405414308E+02 0.15515561842E+02 0.15587781575E+02
 0.13663862844E+02 0.13743373547E+02 0.13825254987E+02 0.13951731477E+02 0.14160552381E+02
 0.14464789715E+02 0.14841288954E+02 0.15233585705E+02 0.15569996555E+02 0.15791044010E+02