   2   2   1   0
  0.5336187E+01  0.2471299E-09  0.2471299E-09  0.2471299E-09  0.5000000E-15
  1.000000000000000E-004
  CAR 
 Carbon Diamond (band)                   
     93.69198484    -15.08596561  301     12.56176346      1.00000000
    -15.086  0.0000E+00  0.0000E+00  0.0000E+00  0.0000E+00
    -14.723  0.0000E+00  0.0000E+00  0.0000E+00  0.0000E+00
    -14.361  0.0000E+00  0.0000E+00  0.0000E+00  0.0000E+00
    -13.998  0.0000E+00  0.0000E+00  0.0000E+00  0.0000E+00
    -13.636  0.0000E+00  0.0000E+00  0.0000E+00  0.0000E+00
    -13.273  0.0000E+00  0.0000E+00  0.0000E+00  0.0000E+00
    -12.910  0.0000E+00  0.0000E+00  0.0000E+00  0.0000E+00
    -12.548  0.0000E+00  0.0000E+00  0.0000E+00  0.0000E+00
    -12.185  0.0000E+00  0.0000E+00  0.0000E+00  0.0000E+00
    -11.823  0.0000E+00  0.0000E+00  0.0000E+00  0.0000E+00
    -11.460  0.0000E+00  0.0000E+00  0.0000E+00  0.0000E+00
    -11.097  0.0000E+00  0.0000E+00  0.0000E+00  0.0000E+00
    -10.735  0.3405E-06  0.3503E-06  0.1235E-06  0.1270E-06
    -10.372  0.1018E+00  0.1022E+00  0.3691E-01  0.3705E-01
    -10.010  0.2003E+00  0.2001E+00  0.1095E+00  0.1096E+00
     -9.647  0.1079E+00  0.1079E+00  0.1487E+00  0.1487E+00
     -9.284  0.8431E-01  0.8429E-01  0.1793E+00  0.1793E+00
     -8.922  0.7188E-01  0.7186E-01  0.2053E+00  0.2053E+00
     -8.559  0.6362E-01  0.6361E-01  0.2284E+00  0.2284E+00
     -8.197  0.5802E-01  0.5801E-01  0.2494E+00  0.2494E+00
     -7.834  0.5354E-01  0.5354E-01  0.2688E+00  0.2689E+00
     -7.472  0.4979E-01  0.4978E-01  0.2869E+00  0.2869E+00
     -7.109  0.4785E-01  0.4785E-01  0.3042E+00  0.3043E+00
     -6.746  0.4451E-01  0.4450E-01  0.3204E+00  0.3204E+00
     -6.384  0.4439E-01  0.4440E-01  0.3365E+00  0.3365E+00
     -6.021  0.4038E-01  0.4036E-01  0.3511E+00  0.3511E+00
     -5.659  0.4036E-01  0.4037E-01  0.3658E+00  0.3658E+00
     -5.296  0.4253E-01  0.4252E-01  0.3812E+00  0.3812E+00
     -4.933  0.3786E-01  0.3785E-01  0.3949E+00  0.3949E+00
     -4.571  0.3966E-01  0.3966E-01  0.4093E+00  0.4093E+00
     -4.208  0.1167E+00  0.1168E+00  0.4516E+00  0.4516E+00
     -3.846  0.1144E+00  0.1143E+00  0.4931E+00  0.4931E+00
     -3.483  0.7288E-01  0.7287E-01  0.5195E+00  0.5195E+00
     -3.120  0.6068E-01  0.6067E-01  0.5415E+00  0.5415E+00
     -2.758  0.5706E-01  0.5706E-01  0.5622E+00  0.5622E+00
     -2.395  0.5414E-01  0.5414E-01  0.5818E+00  0.5818E+00
     -2.033  0.1157E+00  0.1160E+00  0.6238E+00  0.6239E+00
     -1.670  0.1688E+00  0.1686E+00  0.6850E+00  0.6850E+00
     -1.307  0.3015E+00  0.3020E+00  0.7943E+00  0.7945E+00
     -0.945  0.1072E+01  0.1071E+01  0.1183E+01  0.1183E+01
     -0.582  0.4410E+00  0.4409E+00  0.1343E+01  0.1343E+01
     -0.220  0.4192E+00  0.4191E+00  0.1495E+01  0.1495E+01
      0.143  0.1502E+00  0.1502E+00  0.1549E+01  0.1549E+01
      0.506  0.7390E-01  0.7383E-01  0.1576E+01  0.1576E+01
      0.868  0.3792E-01  0.3791E-01  0.1590E+01  0.1590E+01
      1.231  0.3589E-01  0.3588E-01  0.1603E+01  0.1603E+01
      1.593  0.3520E-01  0.3520E-01  0.1616E+01  0.1616E+01
      1.956  0.5433E-01  0.5447E-01  0.1635E+01  0.1635E+01
      2.319  0.1346E+00  0.1345E+00  0.1684E+01  0.1684E+01
      2.681  0.1118E+00  0.1118E+00  0.1725E+01  0.1725E+01
      3.044  0.1784E+00  0.1784E+00  0.1789E+01  0.1789E+01
      3.406  0.3466E+00  0.3468E+00  0.1915E+01  0.1915E+01
      3.769  0.2506E+00  0.2505E+00  0.2006E+01  0.2006E+01
      4.131  0.2213E+00  0.2212E+00  0.2086E+01  0.2086E+01
      4.494  0.2224E+00  0.2224E+00  0.2167E+01  0.2167E+01
      4.857  0.2308E+00  0.2308E+00  0.2250E+01  0.2250E+01
      5.219  0.2817E+00  0.2817E+00  0.2353E+01  0.2353E+01
      5.582  0.6460E+00  0.6460E+00  0.2587E+01  0.2587E+01
      5.944  0.3116E+00  0.3115E+00  0.2700E+01  0.2700E+01
      6.307  0.2384E+00  0.2384E+00  0.2786E+01  0.2786E+01
      6.670  0.1650E+00  0.1650E+00  0.2846E+01  0.2846E+01
      7.032  0.1458E+00  0.1458E+00  0.2899E+01  0.2899E+01
      7.395  0.1443E+00  0.1443E+00  0.2951E+01  0.2951E+01
      7.757  0.1424E+00  0.1424E+00  0.3003E+01  0.3003E+01
      8.120  0.1453E+00  0.1453E+00  0.3056E+01  0.3056E+01
      8.483  0.1448E+00  0.1447E+00  0.3108E+01  0.3108E+01
      8.845  0.1683E+00  0.1683E+00  0.3169E+01  0.3169E+01
      9.208  0.3737E+00  0.3737E+00  0.3305E+01  0.3305E+01
      9.570  0.2560E+00  0.2559E+00  0.3397E+01  0.3397E+01
      9.933  0.1853E+00  0.1853E+00  0.3465E+01  0.3465E+01
     10.296  0.1679E+00  0.1679E+00  0.3525E+01  0.3525E+01
     10.658  0.1757E+00  0.1757E+00  0.3589E+01  0.3589E+01
     11.021  0.1808E+00  0.1808E+00  0.3655E+01  0.3655E+01
     11.383  0.1978E+00  0.1978E+00  0.3726E+01  0.3726E+01
     11.746  0.2419E+00  0.2419E+00  0.3814E+01  0.3814E+01
     12.109  0.4635E+00  0.4635E+00  0.3982E+01  0.3982E+01
     12.471  0.4891E-01  0.4894E-01  0.4000E+01  0.4000E+01
     12.834  0.3842E-09  0.3853E-09  0.4000E+01  0.4000E+01
     13.196  0.0000E+00  0.0000E+00  0.4000E+01  0.4000E+01
     13.559  0.0000E+00  0.0000E+00  0.4000E+01  0.4000E+01
     13.921  0.0000E+00  0.0000E+00  0.4000E+01  0.4000E+01
     14.284  0.0000E+00  0.0000E+00  0.4000E+01  0.4000E+01
     14.647  0.0000E+00  0.0000E+00  0.4000E+01  0.4000E+01
     15.009  0.0000E+00  0.0000E+00  0.4000E+01  0.4000E+01
     15.372  0.0000E+00  0.0000E+00  0.4000E+01  0.4000E+01
     15.734  0.1661E-12  0.1809E-12  0.4000E+01  0.4000E+01
     16.097  0.2469E-02  0.2537E-02  0.4001E+01  0.4001E+01
     16.460  0.1601E+00  0.1604E+00  0.4059E+01  0.4059E+01
     16.822  0.2149E+00  0.2165E+00  0.4137E+01  0.4138E+01
     17.185  0.5307E+00  0.5298E+00  0.4329E+01  0.4330E+01
     17.547  0.3036E+00  0.3034E+00  0.4439E+01  0.4440E+01
     17.910  0.5442E+00  0.5442E+00  0.4637E+01  0.4637E+01
     18.273  0.3702E+00  0.3700E+00  0.4771E+01  0.4771E+01
     18.635  0.2910E+00  0.2909E+00  0.4876E+01  0.4877E+01
     18.998  0.2628E+00  0.2628E+00  0.4972E+01  0.4972E+01
     19.360  0.2468E+00  0.2468E+00  0.5061E+01  0.5061E+01
     19.723  0.2430E+00  0.2430E+00  0.5149E+01  0.5149E+01
     20.086  0.2538E+00  0.2538E+00  0.5241E+01  0.5241E+01
     20.448  0.3457E+00  0.3462E+00  0.5367E+01  0.5367E+01
     20.811  0.7760E+00  0.7761E+00  0.5648E+01  0.5648E+01
     21.173  0.4242E+00  0.4237E+00  0.5802E+01  0.5802E+01
     21.536  0.3370E+00  0.3372E+00  0.5924E+01  0.5924E+01
     21.899  0.2915E+00  0.2912E+00  0.6030E+01  0.6030E+01
     22.261  0.2080E+00  0.2080E+00  0.6105E+01  0.6105E+01
     22.624  0.2002E+00  0.2002E+00  0.6178E+01  0.6178E+01
     22.986  0.2436E+00  0.2437E+00  0.6266E+01  0.6266E+01
     23.349  0.1961E+00  0.1957E+00  0.6337E+01  0.6337E+01
     23.712  0.6880E-01  0.6878E-01  0.6362E+01  0.6362E+01
     24.074  0.7518E-01  0.7515E-01  0.6389E+01  0.6389E+01
     24.437  0.6977E-01  0.6978E-01  0.6415E+01  0.6415E+01
     24.799  0.6590E-01  0.6590E-01  0.6439E+01  0.6439E+01
     25.162  0.1354E+00  0.1356E+00  0.6488E+01  0.6488E+01
     25.524  0.2297E+00  0.2297E+00  0.6571E+01  0.6571E+01
     25.887  0.1747E+00  0.1747E+00  0.6634E+01  0.6634E+01
     26.250  0.1698E+00  0.1698E+00  0.6696E+01  0.6696E+01
     26.612  0.3632E+00  0.3642E+00  0.6828E+01  0.6828E+01
     26.975  0.5387E+00  0.5379E+00  0.7023E+01  0.7023E+01
     27.337  0.2438E+00  0.2437E+00  0.7111E+01  0.7111E+01
     27.700  0.2131E+00  0.2131E+00  0.7189E+01  0.7189E+01
     28.063  0.2413E+00  0.2415E+00  0.7276E+01  0.7276E+01
     28.425  0.4181E+00  0.4191E+00  0.7428E+01  0.7428E+01
     28.788  0.2527E+00  0.2514E+00  0.7519E+01  0.7519E+01
     29.150  0.2381E+00  0.2382E+00  0.7606E+01  0.7606E+01
     29.513  0.3128E+00  0.3127E+00  0.7719E+01  0.7719E+01
     29.876  0.4403E+00  0.4404E+00  0.7879E+01  0.7879E+01
     30.238  0.4054E+00  0.4052E+00  0.8026E+01  0.8026E+01
     30.601  0.4813E-01  0.4840E-01  0.8043E+01  0.8043E+01
     30.963  0.6694E-01  0.6674E-01  0.8067E+01  0.8067E+01
     31.326  0.5229E-01  0.5225E-01  0.8086E+01  0.8086E+01
     31.689  0.6240E-01  0.6248E-01  0.8109E+01  0.8109E+01
     32.051  0.1447E+00  0.1462E+00  0.8161E+01  0.8162E+01
     32.414  0.2639E+00  0.2632E+00  0.8257E+01  0.8258E+01
     32.776  0.2755E+00  0.2754E+00  0.8357E+01  0.8357E+01
     33.139  0.2367E+00  0.2367E+00  0.8443E+01  0.8443E+01
     33.502  0.2432E+00  0.2433E+00  0.8531E+01  0.8531E+01
     33.864  0.2721E+00  0.2722E+00  0.8630E+01  0.8630E+01
     34.227  0.2303E+00  0.2297E+00  0.8713E+01  0.8713E+01
     34.589  0.3721E+00  0.3727E+00  0.8848E+01  0.8849E+01
     34.952  0.5091E+00  0.5096E+00  0.9033E+01  0.9033E+01
     35.314  0.3754E+00  0.3746E+00  0.9169E+01  0.9169E+01
     35.677  0.3043E+00  0.3042E+00  0.9279E+01  0.9279E+01
     36.040  0.3491E+00  0.3494E+00  0.9406E+01  0.9406E+01
     36.402  0.3815E+00  0.3816E+00  0.9544E+01  0.9545E+01
     36.765  0.6799E+00  0.6802E+00  0.9791E+01  0.9791E+01
     37.127  0.3262E+00  0.3253E+00  0.9909E+01  0.9909E+01
     37.490  0.3447E+00  0.3458E+00  0.1003E+02  0.1003E+02
     37.853  0.3688E+00  0.3676E+00  0.1017E+02  0.1017E+02
     38.215  0.2131E+00  0.2133E+00  0.1024E+02  0.1025E+02
     38.578  0.3648E+00  0.3649E+00  0.1038E+02  0.1038E+02
     38.940  0.4169E+00  0.4168E+00  0.1053E+02  0.1053E+02
     39.303  0.2771E+00  0.2768E+00  0.1063E+02  0.1063E+02
     39.666  0.1464E+00  0.1463E+00  0.1068E+02  0.1068E+02
     40.028  0.1257E+00  0.1257E+00  0.1073E+02  0.1073E+02
     40.391  0.2090E+00  0.2091E+00  0.1080E+02  0.1080E+02
     40.753  0.1310E+00  0.1308E+00  0.1085E+02  0.1085E+02
     41.116  0.1107E+00  0.1107E+00  0.1089E+02  0.1089E+02
     41.479  0.9611E-01  0.9609E-01  0.1093E+02  0.1093E+02
     41.841  0.9511E-01  0.9508E-01  0.1096E+02  0.1096E+02
     42.204  0.8316E-01  0.8311E-01  0.1099E+02  0.1099E+02
     42.566  0.8226E-01  0.8233E-01  0.1102E+02  0.1102E+02
     42.929  0.8460E-01  0.8493E-01  0.1105E+02  0.1105E+02
     43.292  0.7931E-01  0.7843E-01  0.1108E+02  0.1108E+02
     43.654  0.3341E+00  0.3361E+00  0.1120E+02  0.1120E+02
     44.017  0.2858E+00  0.2849E+00  0.1130E+02  0.1130E+02
     44.379  0.2154E+00  0.2150E+00  0.1138E+02  0.1138E+02
     44.742  0.2169E+00  0.2183E+00  0.1146E+02  0.1146E+02
     45.105  0.1813E+00  0.1802E+00  0.1153E+02  0.1153E+02
     45.467  0.3101E+00  0.3110E+00  0.1164E+02  0.1164E+02
     45.830  0.1933E+00  0.1936E+00  0.1171E+02  0.1171E+02
     46.192  0.1158E+00  0.1148E+00  0.1175E+02  0.1175E+02
     46.555  0.2186E+00  0.2179E+00  0.1183E+02  0.1183E+02
     46.917  0.1260E+00  0.1261E+00  0.1188E+02  0.1188E+02
     47.280  0.1317E+00  0.1320E+00  0.1192E+02  0.1192E+02
     47.643  0.1672E+00  0.1666E+00  0.1198E+02  0.1198E+02
     48.005  0.4173E-01  0.4161E-01  0.1200E+02  0.1200E+02
     48.368  0.3749E-03  0.3559E-03  0.1200E+02  0.1200E+02
     48.730  0.0000E+00  0.0000E+00  0.1200E+02  0.1200E+02
     49.093  0.0000E+00  0.0000E+00  0.1200E+02  0.1200E+02
     49.456  0.0000E+00  0.0000E+00  0.1200E+02  0.1200E+02
     49.818  0.0000E+00  0.0000E+00  0.1200E+02  0.1200E+02
     50.181  0.0000E+00  0.0000E+00  0.1200E+02  0.1200E+02
     50.543  0.0000E+00  0.0000E+00  0.1200E+02  0.1200E+02
     50.906  0.0000E+00  0.0000E+00  0.1200E+02  0.1200E+02
     51.269  0.0000E+00  0.0000E+00  0.1200E+02  0.1200E+02
     51.631  0.0000E+00  0.0000E+00  0.1200E+02  0.1200E+02
     51.994  0.0000E+00  0.0000E+00  0.1200E+02  0.1200E+02
     52.356  0.0000E+00  0.0000E+00  0.1200E+02  0.1200E+02
     52.719  0.0000E+00  0.0000E+00  0.1200E+02  0.1200E+02
     53.082  0.0000E+00  0.0000E+00  0.1200E+02  0.1200E+02
     53.444  0.0000E+00  0.0000E+00  0.1200E+02  0.1200E+02
     53.807  0.0000E+00  0.0000E+00  0.1200E+02  0.1200E+02
     54.169  0.0000E+00  0.0000E+00  0.1200E+02  0.1200E+02
     54.532  0.0000E+00  0.0000E+00  0.1200E+02  0.1200E+02
     54.895  0.0000E+00  0.0000E+00  0.1200E+02  0.1200E+02
     55.257  0.0000E+00  0.0000E+00  0.1200E+02  0.1200E+02
     55.620  0.0000E+00  0.0000E+00  0.1200E+02  0.1200E+02
     55.982  0.0000E+00  0.0000E+00  0.1200E+02  0.1200E+02
     56.345  0.0000E+00  0.0000E+00  0.1200E+02  0.1200E+02
     56.707  0.0000E+00  0.0000E+00  0.1200E+02  0.1200E+02
     57.070  0.0000E+00  0.0000E+00  0.1200E+02  0.1200E+02
     57.433  0.0000E+00  0.0000E+00  0.1200E+02  0.1200E+02
     57.795  0.0000E+00  0.0000E+00  0.1200E+02  0.1200E+02
     58.158  0.0000E+00  0.0000E+00  0.1200E+02  0.1200E+02
     58.520  0.0000E+00  0.0000E+00  0.1200E+02  0.1200E+02
     58.883  0.0000E+00  0.0000E+00  0.1200E+02  0.1200E+02
     59.246  0.0000E+00  0.0000E+00  0.1200E+02  0.1200E+02
     59.608  0.0000E+00  0.0000E+00  0.1200E+02  0.1200E+02
     59.971  0.0000E+00  0.0000E+00  0.1200E+02  0.1200E+02
     60.333  0.0000E+00  0.0000E+00  0.1200E+02  0.1200E+02
     60.696  0.0000E+00  0.0000E+00  0.1200E+02  0.1200E+02
     61.059  0.0000E+00  0.0000E+00  0.1200E+02  0.1200E+02
     61.421  0.0000E+00  0.0000E+00  0.1200E+02  0.1200E+02
     61.784  0.0000E+00  0.0000E+00  0.1200E+02  0.1200E+02
     62.146  0.0000E+00  0.0000E+00  0.1200E+02  0.1200E+02
     62.509  0.0000E+00  0.0000E+00  0.1200E+02  0.1200E+02
     62.872  0.0000E+00  0.0000E+00  0.1200E+02  0.1200E+02
     63.234  0.0000E+00  0.0000E+00  0.1200E+02  0.1200E+02
     63.597  0.0000E+00  0.0000E+00  0.1200E+02  0.1200E+02
     63.959  0.0000E+00  0.0000E+00  0.1200E+02  0.1200E+02
     64.322  0.0000E+00  0.0000E+00  0.1200E+02  0.1200E+02
     64.685  0.0000E+00  0.0000E+00  0.1200E+02  0.1200E+02
     65.047  0.0000E+00  0.0000E+00  0.1200E+02  0.1200E+02
     65.410  0.0000E+00  0.0000E+00  0.1200E+02  0.1200E+02
     65.772  0.0000E+00  0.0000E+00  0.1200E+02  0.1200E+02
     66.135  0.0000E+00  0.0000E+00  0.1200E+02  0.1200E+02
     66.497  0.0000E+00  0.0000E+00  0.1200E+02  0.1200E+02
     66.860  0.0000E+00  0.0000E+00  0.1200E+02  0.1200E+02
     67.223  0.0000E+00  0.0000E+00  0.1200E+02  0.1200E+02
     67.585  0.0000E+00  0.0000E+00  0.1200E+02  0.1200E+02
     67.948  0.0000E+00  0.0000E+00  0.1200E+02  0.1200E+02
     68.310  0.0000E+00  0.0000E+00  0.1200E+02  0.1200E+02
     68.673  0.0000E+00  0.0000E+00  0.1200E+02  0.1200E+02
     69.036  0.0000E+00  0.0000E+00  0.1200E+02  0.1200E+02
     69.398  0.0000E+00  0.0000E+00  0.1200E+02  0.1200E+02
     69.761  0.0000E+00  0.0000E+00  0.1200E+02  0.1200E+02
     70.123  0.0000E+00  0.0000E+00  0.1200E+02  0.1200E+02
     70.486  0.0000E+00  0.0000E+00  0.1200E+02  0.1200E+02
     70.849  0.0000E+00  0.0000E+00  0.1200E+02  0.1200E+02
     71.211  0.0000E+00  0.0000E+00  0.1200E+02  0.1200E+02
     71.574  0.0000E+00  0.0000E+00  0.1200E+02  0.1200E+02
     71.936  0.0000E+00  0.0000E+00  0.1200E+02  0.1200E+02
     72.299  0.0000E+00  0.0000E+00  0.1200E+02  0.1200E+02
     72.662  0.0000E+00  0.0000E+00  0.1200E+02  0.1200E+02
     73.024  0.0000E+00  0.0000E+00  0.1200E+02  0.1200E+02
     73.387  0.0000E+00  0.0000E+00  0.1200E+02  0.1200E+02
     73.749  0.0000E+00  0.0000E+00  0.1200E+02  0.1200E+02
     74.112  0.0000E+00  0.0000E+00  0.1200E+02  0.1200E+02
     74.475  0.0000E+00  0.0000E+00  0.1200E+02  0.1200E+02
     74.837  0.0000E+00  0.0000E+00  0.1200E+02  0.1200E+02
     75.200  0.0000E+00  0.0000E+00  0.1200E+02  0.1200E+02
     75.562  0.0000E+00  0.0000E+00  0.1200E+02  0.1200E+02
     75.925  0.0000E+00  0.0000E+00  0.1200E+02  0.1200E+02
     76.288  0.0000E+00  0.0000E+00  0.1200E+02  0.1200E+02
     76.650  0.0000E+00  0.0000E+00  0.1200E+02  0.1200E+02
     77.013  0.0000E+00  0.0000E+00  0.1200E+02  0.1200E+02
     77.375  0.0000E+00  0.0000E+00  0.1200E+02  0.1200E+02
     77.738  0.0000E+00  0.0000E+00  0.1200E+02  0.1200E+02
     78.100  0.0000E+00  0.0000E+00  0.1200E+02  0.1200E+02
     78.463  0.0000E+00  0.0000E+00  0.1200E+02  0.1200E+02
     78.826  0.0000E+00  0.0000E+00  0.1200E+02  0.1200E+02
     79.188  0.0000E+00  0.0000E+00  0.1200E+02  0.1200E+02
     79.551  0.0000E+00  0.0000E+00  0.1200E+02  0.1200E+02
     79.913  0.0000E+00  0.0000E+00  0.1200E+02  0.1200E+02
     80.276  0.0000E+00  0.0000E+00  0.1200E+02  0.1200E+02
     80.639  0.0000E+00  0.0000E+00  0.1200E+02  0.1200E+02
     81.001  0.0000E+00  0.0000E+00  0.1200E+02  0.1200E+02
     81.364  0.0000E+00  0.0000E+00  0.1200E+02  0.1200E+02
     81.726  0.0000E+00  0.0000E+00  0.1200E+02  0.1200E+02
     82.089  0.0000E+00  0.0000E+00  0.1200E+02  0.1200E+02
     82.452  0.0000E+00  0.0000E+00  0.1200E+02  0.1200E+02
     82.814  0.0000E+00  0.0000E+00  0.1200E+02  0.1200E+02
     83.177  0.0000E+00  0.0000E+00  0.1200E+02  0.1200E+02
     83.539  0.0000E+00  0.0000E+00  0.1200E+02  0.1200E+02
     83.902  0.0000E+00  0.0000E+00  0.1200E+02  0.1200E+02
     84.265  0.0000E+00  0.0000E+00  0.1200E+02  0.1200E+02
     84.627  0.0000E+00  0.0000E+00  0.1200E+02  0.1200E+02
     84.990  0.0000E+00  0.0000E+00  0.1200E+02  0.1200E+02
     85.352  0.0000E+00  0.0000E+00  0.1200E+02  0.1200E+02
     85.715  0.0000E+00  0.0000E+00  0.1200E+02  0.1200E+02
     86.078  0.0000E+00  0.0000E+00  0.1200E+02  0.1200E+02
     86.440  0.0000E+00  0.0000E+00  0.1200E+02  0.1200E+02
     86.803  0.0000E+00  0.0000E+00  0.1200E+02  0.1200E+02
     87.165  0.0000E+00  0.0000E+00  0.1200E+02  0.1200E+02
     87.528  0.0000E+00  0.0000E+00  0.1200E+02  0.1200E+02
     87.890  0.0000E+00  0.0000E+00  0.1200E+02  0.1200E+02
     88.253  0.0000E+00  0.0000E+00  0.1200E+02  0.1200E+02
     88.616  0.0000E+00  0.0000E+00  0.1200E+02  0.1200E+02
     88.978  0.0000E+00  0.0000E+00  0.1200E+02  0.1200E+02
     89.341  0.0000E+00  0.0000E+00  0.1200E+02  0.1200E+02
     89.703  0.0000E+00  0.0000E+00  0.1200E+02  0.1200E+02
     90.066  0.0000E+00  0.0000E+00  0.1200E+02  0.1200E+02
     90.429  0.0000E+00  0.0000E+00  0.1200E+02  0.1200E+02
     90.791  0.0000E+00  0.0000E+00  0.1200E+02  0.1200E+02
     91.154  0.0000E+00  0.0000E+00  0.1200E+02  0.1200E+02
     91.516  0.0000E+00  0.0000E+00  0.1200E+02  0.1200E+02
     91.879  0.0000E+00  0.0000E+00  0.1200E+02  0.1200E+02
     92.242  0.0000E+00  0.0000E+00  0.1200E+02  0.1200E+02
     92.604  0.0000E+00  0.0000E+00  0.1200E+02  0.1200E+02
     92.967  0.0000E+00  0.0000E+00  0.1200E+02  0.1200E+02
     93.329  0.0000E+00  0.0000E+00  0.1200E+02  0.1200E+02
     93.692  0.0000E+00  0.0000E+00  0.1200E+02  0.1200E+02
     93.69198484    -15.08596561  301     12.56176346      1.00000000
    -15.086  0.0000E+00  0.0000E+00  0.0000E+00  0.0000E+00  0.0000E+00  0.0000E+00  0.0000E+00  0.0000E+00  0.0000E+00  0.0000E+00  0.0000E+00  0.0000E+00  0.0000E+00  0.0000E+00  0.0000E+00  0.0000E+00  0.0000E+00  0.0000E+00
    -14.723  0.0000E+00  0.0000E+00  0.0000E+00  0.0000E+00  0.0000E+00  0.0000E+00  0.0000E+00  0.0000E+00  0.0000E+00  0.0000E+00  0.0000E+00  0.0000E+00  0.0000E+00  0.0000E+00  0.0000E+00  0.0000E+00  0.0000E+00  0.0000E+00
    -14.361  0.0000E+00  0.0000E+00  0.0000E+00  0.0000E+00  0.0000E+00  0.0000E+00  0.0000E+00  0.0000E+00  0.0000E+00  0.0000E+00  0.0000E+00  0.0000E+00  0.0000E+00  0.0000E+00  0.0000E+00  0.0000E+00  0.0000E+00  0.0000E+00
    -13.998  0.0000E+00  0.0000E+00  0.0000E+00  0.0000E+00  0.0000E+00  0.0000E+00  0.0000E+00  0.0000E+00  0.0000E+00  0.0000E+00  0.0000E+00  0.0000E+00  0.0000E+00  0.0000E+00  0.0000E+00  0.0000E+00  0.0000E+00  0.0000E+00
    -13.636  0.0000E+00  0.0000E+00  0.0000E+00  0.0000E+00  0.0000E+00  0.0000E+00  0.0000E+00  0.0000E+00  0.0000E+00  0.0000E+00  0.0000E+00  0.0000E+00  0.0000E+00  0.0000E+00  0.0000E+00  0.0000E+00  0.0000E+00  0.0000E+00
    -13.273  0.0000E+00  0.0000E+00  0.0000E+00  0.0000E+00  0.0000E+00  0.0000E+00  0.0000E+00  0.0000E+00  0.0000E+00  0.0000E+00  0.0000E+00  0.0000E+00  0.0000E+00  0.0000E+00  0.0000E+00  0.0000E+00  0.0000E+00  0.0000E+00
    -12.910  0.0000E+00  0.0000E+00  0.0000E+00  0.0000E+00  0.0000E+00  0.0000E+00  0.0000E+00  0.0000E+00  0.0000E+00  0.0000E+00  0.0000E+00  0.0000E+00  0.0000E+00  0.0000E+00  0.0000E+00  0.0000E+00  0.0000E+00  0.0000E+00
    -12.548  0.0000E+00  0.0000E+00  0.0000E+00  0.0000E+00  0.0000E+00  0.0000E+00  0.0000E+00  0.0000E+00  0.0000E+00  0.0000E+00  0.0000E+00  0.0000E+00  0.0000E+00  0.0000E+00  0.0000E+00  0.0000E+00  0.0000E+00  0.0000E+00
    -12.185  0.0000E+00  0.0000E+00  0.0000E+00  0.0000E+00  0.0000E+00  0.0000E+00  0.0000E+00  0.0000E+00  0.0000E+00  0.0000E+00  0.0000E+00  0.0000E+00  0.0000E+00  0.0000E+00  0.0000E+00  0.0000E+00  0.0000E+00  0.0000E+00
    -11.823  0.0000E+00  0.0000E+00  0.0000E+00  0.0000E+00  0.0000E+00  0.0000E+00  0.0000E+00  0.0000E+00  0.0000E+00  0.0000E+00  0.0000E+00  0.0000E+00  0.0000E+00  0.0000E+00  0.0000E+00  0.0000E+00  0.0000E+00  0.0000E+00
    -11.460  0.0000E+00  0.0000E+00  0.0000E+00  0.0000E+00  0.0000E+00  0.0000E+00  0.0000E+00  0.0000E+00  0.0000E+00  0.0000E+00  0.0000E+00  0.0000E+00  0.0000E+00  0.0000E+00  0.0000E+00  0.0000E+00  0.0000E+00  0.0000E+00
    -11.097  0.0000E+00  0.0000E+00  0.0000E+00  0.0000E+00  0.0000E+00  0.0000E+00  0.0000E+00  0.0000E+00  0.0000E+00  0.0000E+00  0.0000E+00  0.0000E+00  0.0000E+00  0.0000E+00  0.0000E+00  0.0000E+00  0.0000E+00  0.0000E+00
    -10.735  0.4867E-07  0.5008E-07  0.7950E-11  0.8190E-11  0.1648E-11  0.1698E-11  0.3667E-11  0.3778E-11  0.0000E+00  0.0000E+00  0.0000E+00  0.0000E+00  0.0000E+00  0.0000E+00  0.0000E+00  0.0000E+00  0.0000E+00  0.0000E+00
    -10.372  0.1454E-01  0.1460E-01  0.1247E-04  0.1256E-04  0.2586E-05  0.2603E-05  0.5752E-05  0.5789E-05  0.0000E+00  0.0000E+00  0.0000E+00  0.0000E+00  0.0000E+00  0.0000E+00  0.0000E+00  0.0000E+00  0.0000E+00  0.0000E+00
    -10.010  0.2851E-01  0.2848E-01  0.1552E-03  0.1554E-03  0.3216E-04  0.3220E-04  0.7151E-04  0.7159E-04  0.0000E+00  0.0000E+00  0.0000E+00  0.0000E+00  0.0000E+00  0.0000E+00  0.0000E+00  0.0000E+00  0.0000E+00  0.0000E+00
     -9.647  0.1522E-01  0.1521E-01  0.2599E-03  0.2600E-03  0.5381E-04  0.5383E-04  0.1195E-03  0.1196E-03  0.0000E+00  0.0000E+00  0.0000E+00  0.0000E+00  0.0000E+00  0.0000E+00  0.0000E+00  0.0000E+00  0.0000E+00  0.0000E+00
     -9.284  0.1178E-01  0.1178E-01  0.3310E-03  0.3310E-03  0.6850E-04  0.6851E-04  0.1520E-03  0.1521E-03  0.0000E+00  0.0000E+00  0.0000E+00  0.0000E+00  0.0000E+00  0.0000E+00  0.0000E+00  0.0000E+00  0.0000E+00  0.0000E+00
     -8.922  0.9950E-02  0.9948E-02  0.3898E-03  0.3898E-03  0.8050E-04  0.8051E-04  0.1788E-03  0.1788E-03  0.0000E+00  0.0000E+00  0.0000E+00  0.0000E+00  0.0000E+00  0.0000E+00  0.0000E+00  0.0000E+00  0.0000E+00  0.0000E+00
     -8.559  0.8729E-02  0.8727E-02  0.4391E-03  0.4391E-03  0.9092E-04  0.9093E-04  0.2014E-03  0.2014E-03  0.0000E+00  0.0000E+00  0.0000E+00  0.0000E+00  0.0000E+00  0.0000E+00  0.0000E+00  0.0000E+00  0.0000E+00  0.0000E+00
     -8.197  0.7898E-02  0.7897E-02  0.4854E-03  0.4855E-03  0.1004E-03  0.1004E-03  0.2225E-03  0.2225E-03  0.0000E+00  0.0000E+00  0.0000E+00  0.0000E+00  0.0000E+00  0.0000E+00  0.0000E+00  0.0000E+00  0.0000E+00  0.0000E+00
     -7.834  0.7231E-02  0.7230E-02  0.5280E-03  0.5280E-03  0.1079E-03  0.1079E-03  0.2395E-03  0.2396E-03  0.0000E+00  0.0000E+00  0.0000E+00  0.0000E+00  0.0000E+00  0.0000E+00  0.0000E+00  0.0000E+00  0.0000E+00  0.0000E+00
     -7.472  0.6681E-02  0.6680E-02  0.5661E-03  0.5662E-03  0.1158E-03  0.1158E-03  0.2503E-03  0.2503E-03  0.0000E+00  0.0000E+00  0.0000E+00  0.0000E+00  0.0000E+00  0.0000E+00  0.0000E+00  0.0000E+00  0.0000E+00  0.0000E+00
     -7.109  0.6381E-02  0.6380E-02  0.6021E-03  0.6022E-03  0.1240E-03  0.1240E-03  0.2813E-03  0.2813E-03  0.0000E+00  0.0000E+00  0.0000E+00  0.0000E+00  0.0000E+00  0.0000E+00  0.0000E+00  0.0000E+00  0.0000E+00  0.0000E+00
     -6.746  0.5899E-02  0.5898E-02  0.6299E-03  0.6297E-03  0.1314E-03  0.1314E-03  0.2759E-03  0.2760E-03  0.0000E+00  0.0000E+00  0.0000E+00  0.0000E+00  0.0000E+00  0.0000E+00  0.0000E+00  0.0000E+00  0.0000E+00  0.0000E+00
     -6.384  0.5856E-02  0.5857E-02  0.6855E-03  0.6858E-03  0.1360E-03  0.1360E-03  0.3135E-03  0.3135E-03  0.0000E+00  0.0000E+00  0.0000E+00  0.0000E+00  0.0000E+00  0.0000E+00  0.0000E+00  0.0000E+00  0.0000E+00  0.0000E+00
     -6.021  0.5311E-02  0.5308E-02  0.6862E-03  0.6858E-03  0.1374E-03  0.1374E-03  0.2901E-03  0.2901E-03  0.0000E+00  0.0000E+00  0.0000E+00  0.0000E+00  0.0000E+00  0.0000E+00  0.0000E+00  0.0000E+00  0.0000E+00  0.0000E+00
     -5.659  0.5304E-02  0.5305E-02  0.7094E-03  0.7098E-03  0.1496E-03  0.1496E-03  0.3297E-03  0.3298E-03  0.0000E+00  0.0000E+00  0.0000E+00  0.0000E+00  0.0000E+00  0.0000E+00  0.0000E+00  0.0000E+00  0.0000E+00  0.0000E+00
     -5.296  0.5593E-02  0.5592E-02  0.8224E-03  0.8223E-03  0.1572E-03  0.1572E-03  0.3491E-03  0.3491E-03  0.0000E+00  0.0000E+00  0.0000E+00  0.0000E+00  0.0000E+00  0.0000E+00  0.0000E+00  0.0000E+00  0.0000E+00  0.0000E+00
     -4.933  0.5027E-02  0.5025E-02  0.7464E-03  0.7461E-03  0.1539E-03  0.1539E-03  0.3192E-03  0.3192E-03  0.0000E+00  0.0000E+00  0.0000E+00  0.0000E+00  0.0000E+00  0.0000E+00  0.0000E+00  0.0000E+00  0.0000E+00  0.0000E+00
     -4.571  0.5383E-02  0.5384E-02  0.7632E-03  0.7635E-03  0.1685E-03  0.1685E-03  0.3402E-03  0.3403E-03  0.0000E+00  0.0000E+00  0.0000E+00  0.0000E+00  0.0000E+00  0.0000E+00  0.0000E+00  0.0000E+00  0.0000E+00  0.0000E+00
     -4.208  0.1773E-01  0.1774E-01  0.1322E-02  0.1323E-02  0.6140E-03  0.6143E-03  0.7961E-03  0.7965E-03  0.0000E+00  0.0000E+00  0.0000E+00  0.0000E+00  0.0000E+00  0.0000E+00  0.0000E+00  0.0000E+00  0.0000E+00  0.0000E+00
     -3.846  0.1732E-01  0.1731E-01  0.1440E-02  0.1440E-02  0.7025E-03  0.7022E-03  0.7502E-03  0.7498E-03  0.0000E+00  0.0000E+00  0.0000E+00  0.0000E+00  0.0000E+00  0.0000E+00  0.0000E+00  0.0000E+00  0.0000E+00  0.0000E+00
     -3.483  0.1067E-01  0.1067E-01  0.1236E-02  0.1236E-02  0.5536E-03  0.5535E-03  0.4789E-03  0.4788E-03  0.0000E+00  0.0000E+00  0.0000E+00  0.0000E+00  0.0000E+00  0.0000E+00  0.0000E+00  0.0000E+00  0.0000E+00  0.0000E+00
     -3.120  0.8709E-02  0.8709E-02  0.1197E-02  0.1197E-02  0.5533E-03  0.5533E-03  0.4001E-03  0.4001E-03  0.0000E+00  0.0000E+00  0.0000E+00  0.0000E+00  0.0000E+00  0.0000E+00  0.0000E+00  0.0000E+00  0.0000E+00  0.0000E+00
     -2.758  0.8046E-02  0.8046E-02  0.1261E-02  0.1261E-02  0.6017E-03  0.6017E-03  0.3924E-03  0.3925E-03  0.0000E+00  0.0000E+00  0.0000E+00  0.0000E+00  0.0000E+00  0.0000E+00  0.0000E+00  0.0000E+00  0.0000E+00  0.0000E+00
     -2.395  0.7528E-02  0.7527E-02  0.1316E-02  0.1316E-02  0.6586E-03  0.6585E-03  0.3613E-03  0.3612E-03  0.0000E+00  0.0000E+00  0.0000E+00  0.0000E+00  0.0000E+00  0.0000E+00  0.0000E+00  0.0000E+00  0.0000E+00  0.0000E+00
     -2.033  0.9805E-02  0.9818E-02  0.3684E-02  0.3694E-02  0.3063E-02  0.3073E-02  0.2632E-02  0.2642E-02  0.0000E+00  0.0000E+00  0.0000E+00  0.0000E+00  0.0000E+00  0.0000E+00  0.0000E+00  0.0000E+00  0.0000E+00  0.0000E+00
     -1.670  0.1245E-01  0.1244E-01  0.5584E-02  0.5577E-02  0.5084E-02  0.5077E-02  0.4442E-02  0.4435E-02  0.0000E+00  0.0000E+00  0.0000E+00  0.0000E+00  0.0000E+00  0.0000E+00  0.0000E+00  0.0000E+00  0.0000E+00  0.0000E+00
     -1.307  0.3239E-01  0.3245E-01  0.1460E-01  0.1463E-01  0.3865E-02  0.3864E-02  0.2900E-02  0.2899E-02  0.0000E+00  0.0000E+00  0.0000E+00  0.0000E+00  0.0000E+00  0.0000E+00  0.0000E+00  0.0000E+00  0.0000E+00  0.0000E+00
     -0.945  0.1236E+00  0.1236E+00  0.6530E-01  0.6528E-01  0.3685E-02  0.3684E-02  0.2652E-02  0.2651E-02  0.0000E+00  0.0000E+00  0.0000E+00  0.0000E+00  0.0000E+00  0.0000E+00  0.0000E+00  0.0000E+00  0.0000E+00  0.0000E+00
     -0.582  0.4955E-01  0.4954E-01  0.2474E-01  0.2474E-01  0.4711E-02  0.4711E-02  0.2254E-02  0.2254E-02  0.0000E+00  0.0000E+00  0.0000E+00  0.0000E+00  0.0000E+00  0.0000E+00  0.0000E+00  0.0000E+00  0.0000E+00  0.0000E+00
     -0.220  0.4895E-01  0.4893E-01  0.1916E-01  0.1915E-01  0.8781E-02  0.8780E-02  0.2180E-02  0.2180E-02  0.0000E+00  0.0000E+00  0.0000E+00  0.0000E+00  0.0000E+00  0.0000E+00  0.0000E+00  0.0000E+00  0.0000E+00  0.0000E+00
      0.143  0.1468E-01  0.1468E-01  0.5453E-02  0.5452E-02  0.5468E-02  0.5468E-02  0.2034E-02  0.2034E-02  0.0000E+00  0.0000E+00  0.0000E+00  0.0000E+00  0.0000E+00  0.0000E+00  0.0000E+00  0.0000E+00  0.0000E+00  0.0000E+00
      0.506  0.7176E-02  0.7168E-02  0.2575E-02  0.2572E-02  0.2938E-02  0.2935E-02  0.1010E-02  0.1008E-02  0.0000E+00  0.0000E+00  0.0000E+00  0.0000E+00  0.0000E+00  0.0000E+00  0.0000E+00  0.0000E+00  0.0000E+00  0.0000E+00
      0.868  0.3445E-02  0.3444E-02  0.1390E-02  0.1389E-02  0.1572E-02  0.1572E-02  0.6169E-03  0.6167E-03  0.0000E+00  0.0000E+00  0.0000E+00  0.0000E+00  0.0000E+00  0.0000E+00  0.0000E+00  0.0000E+00  0.0000E+00  0.0000E+00
      1.231  0.3184E-02  0.3183E-02  0.1428E-02  0.1428E-02  0.1458E-02  0.1458E-02  0.6335E-03  0.6334E-03  0.0000E+00  0.0000E+00  0.0000E+00  0.0000E+00  0.0000E+00  0.0000E+00  0.0000E+00  0.0000E+00  0.0000E+00  0.0000E+00
      1.593  0.3049E-02  0.3048E-02  0.1492E-02  0.1492E-02  0.1420E-02  0.1420E-02  0.6745E-03  0.6745E-03  0.0000E+00  0.0000E+00  0.0000E+00  0.0000E+00  0.0000E+00  0.0000E+00  0.0000E+00  0.0000E+00  0.0000E+00  0.0000E+00
      1.956  0.3046E-02  0.3047E-02  0.2487E-02  0.2493E-02  0.2594E-02  0.2603E-02  0.1612E-02  0.1618E-02  0.0000E+00  0.0000E+00  0.0000E+00  0.0000E+00  0.0000E+00  0.0000E+00  0.0000E+00  0.0000E+00  0.0000E+00  0.0000E+00
      2.319  0.3145E-02  0.3144E-02  0.5925E-02  0.5922E-02  0.7698E-02  0.7697E-02  0.5892E-02  0.5891E-02  0.0000E+00  0.0000E+00  0.0000E+00  0.0000E+00  0.0000E+00  0.0000E+00  0.0000E+00  0.0000E+00  0.0000E+00  0.0000E+00
      2.681  0.3200E-02  0.3201E-02  0.4275E-02  0.4276E-02  0.6778E-02  0.6780E-02  0.5188E-02  0.5191E-02  0.0000E+00  0.0000E+00  0.0000E+00  0.0000E+00  0.0000E+00  0.0000E+00  0.0000E+00  0.0000E+00  0.0000E+00  0.0000E+00
      3.044  0.3928E-02  0.3929E-02  0.7622E-02  0.7623E-02  0.1007E-01  0.1007E-01  0.9465E-02  0.9467E-02  0.0000E+00  0.0000E+00  0.0000E+00  0.0000E+00  0.0000E+00  0.0000E+00  0.0000E+00  0.0000E+00  0.0000E+00  0.0000E+00