    2    2    1    2
  0.5336187E+01  0.2471299E-09  0.2471299E-09  0.2471299E-09  0.5000000E-15
  1.000000000000000E-004
  CAR 
 Carbon Diamond (band)                   
    8  300   12
 
  0.0000000E+00  0.0000000E+00  0.0000000E+00  0.3333333E-02
   1      -10.423845    -10.424276
   2       12.060661     12.060697
   3       12.060662     12.060697
   4       12.060662     12.060698
   5       17.770106     17.769868
   6       17.770108     17.769868
   7       17.770108     17.769871
   8       26.589065     26.588591
   9       31.994356     31.992117
  10       39.122342     39.122014
  11       39.122354     39.122131
  12       40.197914     40.196373
 
  0.1020408E-01  0.0000000E+00  0.1020408E-01  0.3333333E-02
   1      -10.419839    -10.420270
   2       12.042456     12.042490
   3       12.042456     12.042491
   4       12.050946     12.050982
   5       17.766846     17.766607
   6       17.791927     17.791690
   7       17.791928     17.791692
   8       26.591886     26.591411
   9       32.001667     31.999428
  10       38.839730     38.839162
  11       39.127422     39.127089
  12       40.207385     40.205821
 
  0.2040816E-01  0.0000000E+00  0.2040816E-01  0.3333333E-02
   1      -10.407807    -10.408238
   2       11.988709     11.988739
   3       11.988709     11.988740
   4       12.021868     12.021903
   5       17.757098     17.756856
   6       17.856515     17.856281
   7       17.856516     17.856283
   8       26.600017     26.599540
   9       32.023539     32.021305
  10       38.308740     38.308012
  11       39.142636     39.142444
  12       40.235698     40.234163
 
  0.3061224E-01  0.0000000E+00  0.3061224E-01  0.3333333E-02
   1      -10.387739    -10.388169
   2       11.901859     11.901884
   3       11.901859     11.901884
   4       11.973628     11.973663
   5       17.790954     17.790701
   6       17.964578     17.964349
   7       17.964580     17.964351
   8       26.612467     26.611988
   9       32.060160     32.057932
  10       37.728154     37.727323
  11       39.168008     39.167707
  12       40.283265     40.281726
 
  0.4081633E-01  0.0000000E+00  0.4081633E-01  0.3333333E-02
   1      -10.359637    -10.360067
   2       11.785488     11.785506
   3       11.785488     11.785506
   4       11.906553     11.906587
   5       17.767034     17.766774
   6       18.106085     18.105863
   7       18.106087     18.105865
   8       26.627568     26.627086
   9       32.111119     32.108899
  10       37.140500     37.139607
  11       39.203530     39.203258
  12       40.349360     40.347821
 
  0.5102041E-01  0.0000000E+00  0.5102041E-01  0.3333333E-02
   1      -10.323508    -10.323937
   2       11.643765     11.643775
   3       11.643766     11.643776
   4       11.821083     11.821117
   5       17.737062     17.736792
   6       18.280104     18.279888
   7       18.280105     18.279890
   8       26.642931     26.642444
   9       32.176076     32.173867
  10       36.560847     36.559909
  11       39.249192     39.248868
  12       40.434279     40.432742
 
  0.6122449E-01  0.0000000E+00  0.6122449E-01  0.3333333E-02
   1      -10.279357    -10.279786
   2       11.480973     11.480975
   3       11.480974     11.480975
   4       11.717753     11.717786
   5       17.701355     17.701074
   6       18.482312     18.482103
   7       18.482313     18.482105
   8       26.655409     26.654914
   9       32.254550     32.252353
  10       35.998036     35.997064
  11       39.305011     39.304677
  12       40.537975     40.536438
 
  0.7142857E-01  0.0000000E+00  0.7142857E-01  0.3333333E-02
   1      -10.227195    -10.227622
   2       11.301174     11.301167
   3       11.301175     11.301167
   4       11.597175     11.597208
   5       17.660283     17.659990
   6       18.708598     18.708397
   7       18.708600     18.708399
   8       26.661071     26.660565
   9       32.345971     32.343789
  10       35.459093     35.458098
  11       39.370961     39.370652
  12       40.660399     40.658863
 
  0.8163265E-01  0.0000000E+00  0.8163265E-01  0.3333333E-02
   1      -10.167022    -10.167449
   2       11.110378     11.110361
   3       11.110379     11.110362
   4       11.460019     11.460052
   5       17.621333     17.621025
   6       18.977797     18.977600
   7       18.977798     18.977602
   8       26.655193     26.654673
   9       32.450012     32.447846
  10       34.950550     34.949540
  11       39.447074     39.446740
  12       40.802996     40.801461
 
  0.9183673E-01  0.0000000E+00  0.9183673E-01  0.3333333E-02
   1      -10.098862    -10.099288
   2       10.907439     10.907413
   3       10.907439     10.907414
   4       11.306997     11.307028
   5       17.570711     17.570388
   6       19.240886     19.240696
   7       19.240887     19.240698
   8       26.632340     26.631799
   9       32.565485     32.563337
  10       34.478888     34.477870
  11       39.533328     39.533002
  12       40.962859     40.961327
 
  0.1020408E+00  0.0000000E+00  0.1020408E+00  0.3333333E-02
   1      -10.022735    -10.023159
   2       10.696990     10.696957
   3       10.696991     10.696957
   4       11.138837     11.138868
   5       17.516053     17.515713
   6       19.518368     19.518184
   7       19.518370     19.518186
   8       26.586575     26.586008
   9       32.691791     32.689663
  10       34.050589     34.049574
  11       39.629747     39.629396
  12       41.141191     41.139659
 
  0.1122449E+00  0.0000000E+00  0.1122449E+00  0.3333333E-02
   1       -9.938651     -9.939073
   2       10.481300     10.481259
   3       10.481301     10.481260
   4       10.956275     10.956305
   5       17.457860     17.457502
   6       19.807900     19.807721
   7       19.807901     19.807722
   8       26.511877     26.511276
   9       32.828086     32.825979
  10       33.671872     33.670868
  11       39.736277     39.735938
  12       41.337854     41.336325
 
  0.1224490E+00  0.0000000E+00  0.1224490E+00  0.3333333E-02
   1       -9.846619     -9.847040
   2       10.262264     10.262216
   3       10.262265     10.262216
   4       10.760039     10.760069
   5       17.396647     17.396271
   6       20.107503     20.107328
   7       20.107504     20.107330
   8       26.402782     26.402141
   9       32.973480     32.971395
  10       33.348149     33.347165
  11       39.852973     39.852620
  12       41.552682     41.551154
 
  0.1326531E+00  0.0000000E+00  0.1326531E+00  0.3333333E-02
   1       -9.746928     -9.747347
   2       10.027562     10.027507
   3       10.027563     10.027507
   4       10.535238     10.535269
   5       17.318376     17.317981
   6       20.414577     20.414406
   7       20.414578     20.414408
   8       26.250414     26.249726
   9       33.082538     33.081583
  10       33.121048     33.118988
  11       39.979777     39.979457
  12       41.784766     41.783240
 
  0.1428571E+00  0.0000000E+00  0.1428571E+00  0.3333333E-02
   1       -9.639113     -9.639530
   2        9.805985      9.805923
   3        9.805985      9.805923
   4       10.313936     10.313966
   5       17.252917     17.252503
   6       20.729688     20.729521
   7       20.729690     20.729523
   8       26.062093     26.061354
   9       32.877589     32.876669
  10       33.280795     33.278759
  11       40.116751     40.116429
  12       42.035163     42.033636
 
  0.1530612E+00  0.0000000E+00  0.1530612E+00  0.3333333E-02
   1       -9.523420     -9.523835
   2        9.580596      9.580528
   3        9.580597      9.580529
   4       10.039082     10.039115
   5       17.185988     17.185553
   6       21.049039     21.048875
   7       21.049040     21.048877
   8       25.813423     25.812629
   9       32.729989     32.729106
  10       33.446629     33.444619
  11       40.263866     40.263596
  12       42.302493     42.300971
 
  0.1632653E+00  0.0000000E+00  0.1632653E+00  0.3333333E-02
   1       -9.399870     -9.400282
   2        9.361297      9.361223
   3        9.361298      9.361224
   4        9.795335      9.795367
   5       17.118161     17.117705
   6       21.374436     21.374274
   7       21.374437     21.374276
   8       25.547694     25.546846
   9       32.638387     32.637543
  10       33.617616     33.615632
  11       40.421132     40.420801
  12       42.587297     42.585775
 
  0.1734694E+00  0.0000000E+00  0.1734694E+00  0.3333333E-02
   1       -9.268491     -9.268900
   2        9.144398      9.144318
   3        9.144399      9.144319
   4        9.541221      9.541251
   5       17.049896     17.049419
   6       21.703633     21.703473
   7       21.703634     21.703475
   8       25.250207     25.249308
   9       32.596695     32.595889
  10       33.792677     33.790720
  11       40.588525     40.588241
  12       42.888651     42.887128
 
  0.1836735E+00  0.0000000E+00  0.1836735E+00  0.3333333E-02
   1       -9.129312     -9.129719
   2        8.930572      8.930487
   3        8.930573      8.930488
   4        9.277286      9.277314
   5       16.981673     16.981176
   6       22.035831     22.035672
   7       22.035832     22.035674
   8       24.926739     24.925792
   9       32.598539     32.597768
  10       33.970758     33.968830
  11       40.766062     40.765745
  12       43.205980     43.204460
 
  0.1938776E+00  0.0000000E+00  0.1938776E+00  0.3333333E-02
   1       -8.982372     -8.982776
   2        8.720399      8.720309
   3        8.720399      8.720309
   4        9.015121      9.015147
   5       16.913957     16.913439
   6       22.370314     22.370156
   7       22.370315     22.370158
   8       24.584818     24.583828
   9       32.642389     32.641648
  10       34.150799     34.148899
  11       40.953740     40.953415
  12       43.538569     43.537049
 
  0.2040816E+00  0.0000000E+00  0.2040816E+00  0.3333333E-02
   1       -8.827709     -8.828110
   2        8.514377      8.514282
   3        8.514378      8.514283
   4        8.732346      8.732370
   5       16.847194     16.846655
   6       22.706434     22.706276
   7       22.706435     22.706278
   8       24.227045     24.226016
   9       32.712222     32.711507
  10       34.331735     34.329864
  11       41.151554     41.151229
  12       43.885512     43.883991
 
  0.2142857E+00  0.0000000E+00  0.2142857E+00  0.3333333E-02
   1       -8.665350     -8.665748
   2        8.312942      8.312843
   3        8.312943      8.312843
   4        8.441264      8.441284
   5       16.781813     16.781252
   6       23.043592     23.043435
   7       23.043593     23.043437
   8       23.860216     23.859153
   9       32.806792     32.806099
  10       34.512499     34.510657
  11       41.359505     41.359180
  12       44.245656     44.244134
 
  0.2244898E+00  0.0000000E+00  0.2244898E+00  0.3333333E-02
   1       -8.495768     -8.496163
   2        8.072355      8.072254
   3        8.072356      8.072256
   4        8.135248      8.135267
   5       16.709374     16.708792
   6       23.377350     23.377193
   7       23.377351     23.377196
   8       23.488251     23.487159
   9       32.910424     32.909747
  10       34.684311     34.682502
  11       41.577016     41.576692
  12       44.608669     44.607145
 
  0.2346939E+00  0.0000000E+00  0.2346939E+00  0.3333333E-02
   1       -8.318187     -8.318577
   2        7.829208      7.829223
   3        7.880827      7.880723
   4        7.880828      7.880724
   5       16.648256     16.647653
   6       23.115900     23.114783
   7       23.714879     23.714722
   8       23.714880     23.714725
   9       33.039347     33.038685
  10       34.861101     34.859322
  11       41.805231     41.804917
  12       44.989425     44.987894
 
  0.2448980E+00  0.0000000E+00  0.2448980E+00  0.3333333E-02
   1       -8.133041     -8.133428
   2        7.516173      7.516183
   3        7.694898      7.694790
   4        7.694899      7.694791
   5       16.589693     16.589070
   6       22.745602     22.744464
   7       24.051806     24.051649
   8       24.051807     24.051651
   9       33.180126     33.179474
  10       35.034619     35.032871
  11       42.043584     42.043256
  12       45.377128     45.375590
 
  0.2551020E+00  0.0000000E+00  0.2551020E+00  0.3333333E-02
   1       -7.940381     -7.940764
   2        7.196569      7.196575
   3        7.514828      7.514716
   4        7.514829      7.514717
   5       16.534044     16.533401
   6       22.379805     22.378650
   7       24.387611     24.387454
   8       24.387613     24.387456
   9       33.329760     33.329115
  10       35.203876     35.202160
  11       42.292058     42.291734
  12       45.768125     45.766579
 
  0.2653061E+00  0.0000000E+00  0.2653061E+00  0.3333333E-02
   1       -7.740261     -7.740640
   2        6.870825      6.870826
   3        7.340848      7.340732
   4        7.340849      7.340733
   5       16.481649     16.480986
   6       22.020471     22.019301
   7       24.721767     24.721609
   8       24.721768     24.721611
   9       33.485758     33.485117
  10       35.367921     35.366237
  11       42.550667     42.550342
  12       46.157350     46.155794
 
  0.2755102E+00  0.0000000E+00  0.2755102E+00  0.3333333E-02
   1       -7.530114     -7.530489
   2        6.600361      6.600352
   3        7.194829      7.194706
   4        7.194830      7.194707
   5       16.456259     16.455572
   6       21.675870     21.674684
   7       25.089913     25.089754
   8       25.089914     25.089756
   9       33.711915     33.711273
  10       35.574535     35.572881
  11       42.821329     42.821008
  12       46.546945     46.545376
 
  0.2857143E+00  0.0000000E+00  0.2857143E+00  0.3333333E-02
   1       -7.315068     -7.315438
   2        6.260012      6.259996
   3        7.032821      7.032695
   4        7.032822      7.032696
   5       16.409791     16.409084
   6       21.333378     21.332183
   7       25.418932     25.418772
   8       25.418933     25.418775
   9       33.878650     33.878007
  10       35.726879     35.725257
  11       43.100174     43.099854
  12       46.908582     46.906994
 
  0.2959184E+00  0.0000000E+00  0.2959184E+00  0.3333333E-02
   1       -7.092764     -7.093129
   2        5.914987      5.914965
   3        6.877504      6.877375
   4        6.877505      6.877377
   5       16.367598     16.366872
   6       21.001150     20.999948
   7       25.744527     25.744367
   8       25.744528     25.744370
   9       34.046350     34.045703
  10       35.871262     35.869673
  11       43.389144     43.388824
  12       47.237593     47.236002
 
  0.3061224E+00  0.0000000E+00  0.3061224E+00  0.3333333E-02
   1       -6.863260     -6.863620
   2        5.565729      5.565699
   3        6.729027      6.728895
   4        6.729028      6.728896
   5       16.329964     16.329219
   6       20.679909     20.678703
   7       26.066041     26.065881
   8       26.066043     26.065883
   9       34.213833     34.213181
  10       36.006955     36.005398
  11       43.688241     43.687916
  12       47.516186     47.514572
 
  0.3163265E+00  0.0000000E+00  0.3163265E+00  0.3333333E-02
   1       -6.626633     -6.626988
   2        5.212687      5.212649
   3        6.587521      6.587387
   4        6.587522      6.587388
   5       16.297165     16.296401
   6       20.370193     20.368984
   7       26.382758     26.382597
   8       26.382759     26.382600
   9       34.380124     34.379464
  10       36.133308     36.131784
  11       43.997449     43.997129
  12       47.724117     47.722538
 
  0.3265306E+00  0.0000000E+00  0.3265306E+00  0.3333333E-02
   1       -6.382969     -6.383318
   2        4.856314      4.856268
   3        6.453109      6.452973
   4        6.453110      6.452974
   5       16.269465     16.268683
   6       20.072385     20.071176
   7       26.693891     26.693730
   8       26.693892     26.693733
   9       34.544413     34.543745
  10       36.249758     36.248267
  11       44.316780     44.316463
  12       47.844110     47.842554
 
  0.3367347E+00  0.0000000E+00  0.3367347E+00  0.3333333E-02
   1       -6.132355     -6.132699
   2        4.497068      4.497013
   3        6.325900      6.325761
   4        6.325901      6.325762
   5       16.247121     16.246321
   6       19.786743     19.785535
   7       26.998574     26.998413
   8       26.998575     26.998416
   9       34.706030     34.705352
  10       36.355830     36.354372
  11       44.646230     44.645914
  12       47.869012     47.867537
 
  0.3469388E+00  0.0000000E+00  0.3469388E+00  0.3333333E-02
   1       -5.874889     -5.875227
   2        4.135405      4.135340
   3        6.205991      6.205850
   4        6.205992      6.205852
   5       16.230382     16.229564
   6       19.513420     19.512214
   7       27.295851     27.295691
   8       27.295853     27.295694
   9       34.864419     34.863729
  10       36.451144     36.449719
  11       44.985797     44.985499
  12       47.805774     47.804331
 
  0.3571429E+00  0.0000000E+00  0.3571429E+00  0.3333333E-02
   1       -5.610674     -5.611006
   2        3.771793      3.771719
   3        6.093473      6.093331
   4        6.093474      6.093332
   5       16.219492     16.218657
   6       19.252479     19.251277
   7       27.584668     27.584508
   8       27.584669     27.584511
   9       35.019120     35.018416
  10       36.535414     36.534021
  11       45.335512     45.335145
  12       47.671773     47.670393
 
  0.3673469E+00  0.0000000E+00  0.3673469E+00  0.3333333E-02
   1       -5.339821     -5.340146
   2        3.406697      3.406613
   3        5.988427      5.988283
   4        5.988428      5.988284
   5       16.214689     16.213836
   6       19.003913     19.002716
   7       27.863861     27.863702
   8       27.863862     27.863705
   9       35.169742     35.169024
  10       36.608446     36.607086
  11       45.695295     45.694989
  12       47.487604     47.486279
 
  0.3775510E+00  0.0000000E+00  0.3775510E+00  0.3333333E-02
   1       -5.062448     -5.062766
   2        3.040573      3.040479
   3        5.890925      5.890779
   4        5.890926      5.890780
   5       16.216205     16.215335
   6       18.767658     18.766468
   7       28.132155     28.131998
   8       28.132158     28.132001
   9       35.315956     35.315223
  10       36.670136     36.668808
  11       46.073514     46.064925
  12       47.271885     47.270606
 
  0.3877551E+00  0.0000000E+00  0.3877551E+00  0.3333333E-02
   1       -4.778692     -4.779002
   2        2.673877      2.673772
   3        5.801034      5.800886
   4        5.801035      5.800887
   5       16.224274     16.223387
   6       18.543601     18.542418
   7       28.388162     28.388006
   8       28.388163     28.388009
   9       35.457467     35.456718
  10       36.720466     36.719170
  11       46.446933     46.446006
  12       47.039482     47.038244
 
  0.3979592E+00  0.0000000E+00  0.3979592E+00  0.3333333E-02
   1       -4.492796     -4.493100
   2        2.295818      2.295704
   3        5.739574      5.739424
   4        5.739575      5.739424
   5       16.235614     16.234712
   6       18.325503     18.324329
   7       28.675020     28.674861
   8       28.675021     28.674864
   9       35.557849     35.557083
  10       36.713329     36.712067
  11       46.835976     46.837094
  12       46.839647     46.838440
 
  0.4081633E+00  0.0000000E+00  0.4081633E+00  0.3333333E-02
   1       -4.197061     -4.197357
   2        1.929497      1.929372
   3        5.665205      5.665053
   4        5.665206      5.665054
   5       16.257671     16.256753
   6       18.125118     18.123953
   7       28.902294     28.902137
   8       28.902295     28.902141
   9       35.686681     35.685897
  10       36.739722     36.738490
  11       46.602079     46.600897
  12       46.603469     46.601825
 
  0.4183673E+00  0.0000000E+00  0.4183673E+00  0.3333333E-02
   1       -3.892564     -3.892853
   2        1.571229      1.571093
   3        5.618264      5.618108
   4        5.618265      5.618109
   5       16.292254     16.291318
   6       17.938499     17.937344
   7       29.137557     29.137402
   8       29.137558     29.137405
   9       35.833404     35.832598
  10       36.793275     36.792072
  11       46.389316     46.388150
  12       46.389538     46.388178
 
  0.4285714E+00  0.0000000E+00  0.4285714E+00  0.3333333E-02
   1       -3.584985     -3.585266
   2        1.206402      1.206256
   3        5.559087      5.558930
   4        5.559088      5.558931
   5       16.328647     16.327696
   6       17.761210     17.760065
   7       29.328492     29.328339
   8       29.328493     29.328342
   9       35.951737     35.950911
  10       36.798019     36.796846
  11       46.176392     46.175245
  12       46.176424     46.175425
 
  0.4387755E+00  0.0000000E+00  0.4387755E+00  0.3333333E-02
   1       -3.271823     -3.272095
   2        0.843146      0.842989
   3        5.507765      5.507607
   4        5.507766      5.507608
   5       16.372750     16.371783
   6       17.595106     17.593972
   7       29.498792     29.498643
   8       29.498794     29.498645
   9       36.064077     36.063231
  10       36.792291     36.791147
  11       45.983326     45.982188
  12       45.983336     45.982198
 
  0.4489796E+00  0.0000000E+00  0.4489796E+00  0.3333333E-02
   1       -2.953267     -2.953531
   2        0.481856      0.481688
   3        5.464327      5.464168
   4        5.464328      5.464169
   5       16.424792     16.423809
   6       17.439939     17.438817
   7       29.646712     29.646564
   8       29.646713     29.646567
   9       36.170187     36.169320
  10       36.776417     36.775302
  11       45.813741     45.812611
  12       45.813753     45.812618
 
  0.4591837E+00  0.0000000E+00  0.4591837E+00  0.3333333E-02
   1       -2.629522     -2.629777
   2        0.122903      0.122725
   3        5.428799      5.428640
   4        5.428800      5.428641
   5       16.485005     16.484007
   6       17.295458     17.294348
   7       29.770597     29.770451
   8       29.770598     29.770454
   9       36.269817     36.268928
  10       36.750747     36.749659
  11       45.670664     45.669540
  12       45.670673     45.669552
 
  0.4693878E+00  0.0000000E+00  0.4693878E+00  0.3333333E-02
   1       -2.300799     -2.301046
   2       -0.229387     -0.229575
   3        5.411367      5.411207
   4        5.411368      5.411207
   5       16.554077     16.553064
   6       17.162738     17.161640
   7       29.894969     29.894823
   8       29.894970     29.894826
   9       36.379259     36.378346
  10       36.715643     36.714583
  11       45.562946     45.561827
  12       45.562949     45.561835
 
  0.4795918E+00  0.0000000E+00  0.4795918E+00  0.3333333E-02
   1       -1.967344     -1.967581
   2       -0.582827     -0.583026
   3        5.391485      5.391324
   4        5.391486      5.391325
   5       16.631341     16.630313
   6       17.038932     17.037847
   7       29.965825     29.965681
   8       29.965826     29.965684
   9       36.465586     36.464650
  10       36.671472     36.670439
  11       45.480599     45.479483
  12       45.480606     45.479492
 
  0.4897959E+00  0.0000000E+00  0.4897959E+00  0.3333333E-02
   1       -1.621753     -1.621981
   2       -0.932904     -0.933113
   3        5.383266      5.383104
   4        5.383267      5.383105
   5       16.726069     16.725026
   6       16.925054     16.923982
   7       30.019170     30.019027
   8       30.019172     30.019030
   9       36.544534     36.543574
  10       36.678952     36.677942
  11       45.431580     45.430464
  12       45.431583     45.430479
 
  0.5000000E+00  0.0000000E+00  0.5000000E+00  0.3333333E-02
   1       -1.279309     -1.279528
   2       -1.279309     -1.279528
   3        5.379279      5.379117
   4        5.379280      5.379117
   5       16.820849     16.819792
   6       16.820850     16.819792
   7       30.033478     30.033335
   8       30.033480     30.033338
   9       36.615772     36.614787
  10       36.615773     36.614788
  11       45.414751     45.413635
  12       45.414754     45.413639
 
  0.5000000E+00  0.0000000E+00  0.5000000E+00  0.3333333E-02
   1       -1.279309     -1.279528
   2       -1.279309     -1.279528
   3        5.379279      5.379117
   4        5.379280      5.379117
   5       16.820849     16.819792
   6       16.820850     16.819792
   7       30.033478     30.033335
   8       30.033479     30.033338
   9       36.615772     36.614787
  10       36.615773     36.614788
  11       45.414751     45.413636
  12       45.414754     45.413639
 
  0.5025510E+00  0.5102041E-02  0.5025510E+00  0.3333333E-02
   1       -1.279081     -1.279299
   2       -1.278858     -1.279076
   3        5.376479      5.376317
   4        5.379710      5.379548
   5       16.821263     16.820206
   6       16.824737     16.823679
   7       30.032125     30.031981
   8       30.032809     30.032668
   9       36.612174     36.611189
  10       36.616481     36.615497
  11       45.406832     45.405721
  12       45.417700     45.416589
 
  0.5051020E+00  0.1020408E-01  0.5051020E+00  0.3333333E-02
   1       -1.278396     -1.278614
   2       -1.277503     -1.277722
   3        5.368092      5.367930
   4        5.381002      5.380839
   5       16.822505     16.821448
   6       16.836385     16.835328
   7       30.028064     30.027920
   8       30.030802     30.030662
   9       36.601399     36.600413
  10       36.618608     36.617624
  11       45.383214     45.382098
  12       45.426528     45.425413
 
  0.5076531E+00  0.1530612E-01  0.5076531E+00  0.3333333E-02
   1       -1.277257     -1.277476
   2       -1.275246     -1.275464
   3        5.354160      5.353995
   4        5.383155      5.382992
   5       16.824575     16.823518
   6       16.855756     16.854700
   7       30.021301     30.021156
   8       30.027462     30.027321
   9       36.583502     36.582518
  10       36.622148     36.621164
  11       45.344321     45.343209
  12       45.441159     45.440044
 
  0.5102041E+00  0.2040816E-01  0.5102041E+00  0.3333333E-02
   1       -1.275670     -1.275888
   2       -1.272085     -1.272304
   3        5.334747      5.334579
   4        5.386168      5.386006
   5       16.827473     16.826416
   6       16.882786     16.881733
   7       30.011842     30.011698
   8       30.022793     30.022651
   9       36.558580     36.557596
  10       36.627095     36.626111
  11       45.290831     45.289725
  12       45.461501     45.460369
 
  0.5127551E+00  0.2551020E-01  0.5127551E+00  0.3333333E-02
   1       -1.274529     -1.274747
   2       -1.269165     -1.269383
   3        5.280960      5.280792
   4        5.385560      5.385398
   5       16.830589     16.829532
   6       16.916834     16.915784
   7       29.948145     29.948008
   8       29.988249     29.988104
   9       36.519199     36.518216
  10       36.627079     36.626096
  11       45.219205     45.218103
  12       45.468978     45.467855
 
  0.5153061E+00  0.3061224E-01  0.5153061E+00  0.3333333E-02
   1       -1.272069     -1.272285
   2       -1.264247     -1.264465
   3        5.250688      5.250517
   4        5.390248      5.390086
   5       16.835098     16.834042
   6       16.958875     16.957829
   7       29.940466     29.940327
   8       29.973279     29.973135
   9       36.480495     36.479514
  10       36.634657     36.633674
  11       45.139107     45.138018
  12       45.500045     45.498927
 
  0.5178571E+00  0.3571429E-01  0.5178571E+00  0.3333333E-02
   1       -1.269183     -1.269398
   2       -1.258428     -1.258647
   3        5.215304      5.215129
   4        5.395795      5.395633
   5       16.840432     16.839376
   6       17.008217     17.007174
   7       29.931518     29.931379
   8       29.955655     29.955511
   9       36.435245     36.434264
  10       36.643577     36.642594
  11       45.047390     45.046308
  12       45.536222     45.535095
 
  0.5204082E+00  0.4081633E-01  0.5204082E+00  0.3333333E-02
   1       -1.265883     -1.266098
   2       -1.251710     -1.251928
   3        5.174964      5.174783
   4        5.402198      5.402037
   5       16.846588     16.845533
   6       17.064712     17.063673
   7       29.921317     29.921177
   8       29.935395     29.935250
   9       36.383659     36.382680
  10       36.653823     36.652841
  11       44.945158     44.944086
  12       45.577227     45.576108
 
  0.5229592E+00  0.4591837E-01  0.5229592E+00  0.3333333E-02
   1       -1.262183     -1.262397
   2       -1.244092     -1.244310
   3        5.129841      5.129655
   4        5.409458      5.409297
   5       16.853568     16.852513
   6       17.128195     17.127161
   7       29.909878     29.909736
   8       29.912521     29.912376
   9       36.325973     36.324995
  10       36.665375     36.664393
  11       44.833519     44.832446
  12       45.622780     45.621644
 
  0.5255102E+00  0.5102041E-01  0.5255102E+00  0.3333333E-02
   1       -1.262254     -1.262466
   2       -1.239253     -1.239470
   3        5.074273      5.074081
   4        5.394663      5.394504
   5       16.856504     16.855450
   6       17.191060     17.190033
   7       29.831141     29.830999
   8       29.881365     29.881222
   9       36.231115     36.230140
  10       36.638282     36.637302
  11       44.702158     44.701103
  12       45.664537     45.663410
 
  0.5280612E+00  0.5612245E-01  0.5280612E+00  0.3333333E-02
   1       -1.257819     -1.258029
   2       -1.229799     -1.230016
   3        5.020358      5.020160
   4        5.403520      5.403362
   5       16.865036     16.863983
   6       17.267646     17.266624
   7       29.802853     29.802711
   8       29.867942     29.867798