Carbon Diamond (band)                   
   3.57000000000000     
     0.000000    0.489488    0.489488
     0.489488    0.000000    0.489488
     0.489488    0.489488    0.000000
   C 
     2
Direct
  0.000000  0.000000  0.000000
  0.250000  0.250000  0.250000
 
   18   18   18
 0.19216E-03 0.38617E-02 0.74674E-01 0.29405     0.48244     0.55530     0.52390     0.43365     0.31114     0.25507    
 0.31114     0.43365     0.52390     0.55530     0.48244     0.29405     0.74674E-01 0.38617E-02 0.38617E-02 0.48998E-01
 0.27570     0.54942     0.68275     0.68416     0.60468     0.46393     0.34122     0.34122     0.46393     0.60468    
 0.68416     0.68275     0.54942     0.27570     0.48998E-01 0.38617E-02 0.74674E-01 0.27570     0.57537     0.75022    
 0.78316     0.72477     0.59629     0.43649     0.36674     0.43649     0.59629     0.72477     0.78316     0.75022    
 0.57537     0.27570     0.74674E-01 0.33036E-01 0.29405     0.54942     0.75022     0.81541     0.78532     0.67727    
 0.50357     0.37792     0.37792     0.50357     0.67727     0.78532     0.81541     0.75022     0.54942     0.29405    
 0.15564     0.15564     0.48244     0.68275     0.78316     0.78532     0.70371     0.53122     0.36939     0.31215    
 0.36939     0.53122     0.70371     0.78532     0.78316     0.68275     0.48244     0.30962     0.25111     0.30962    
 0.55530     0.68416     0.72477     0.67727     0.53122     0.36156     0.26920     0.26920     0.36156     0.53122    
 0.67727     0.72477     0.68416     0.55530     0.39785     0.30975     0.30975     0.39785     0.52390     0.60468    
 0.59629     0.50357     0.36939     0.26920     0.23527     0.26920     0.36939     0.50357     0.59629     0.60468    
 0.52390     0.39591     0.30976     0.28552     0.30976     0.39591     0.43365     0.46393     0.43649     0.37792    
 0.31215     0.26920     0.26920     0.31215     0.37792     0.43649     0.46393     0.43365     0.33518     0.24936    
 0.22245     0.22245     0.24936     0.33518     0.31114     0.34122     0.36674     0.37792     0.36939     0.36156    
 0.36939     0.37792     0.36674     0.34122     0.31114     0.25016     0.17328     0.13923     0.13588     0.13923    
 0.17328     0.25016     0.25507     0.34122     0.43649     0.50357     0.53122     0.53122     0.50357     0.43649    
 0.34122     0.25507     0.18566     0.11810     0.77004E-01 0.65620E-01 0.65620E-01 0.77004E-01 0.11810     0.18566    
 0.31114     0.46393     0.59629     0.67727     0.70371     0.67727     0.59629     0.46393     0.31114     0.18566    
 0.10100     0.53233E-01 0.35023E-01 0.31118E-01 0.35023E-01 0.53233E-01 0.10100     0.18566     0.43365     0.60468    
 0.72477     0.78532     0.78532     0.72477     0.60468     0.43365     0.25016     0.11810     0.53233E-01 0.27963E-01
 0.20593E-01 0.20593E-01 0.27963E-01 0.53233E-01 0.11810     0.25016     0.52390     0.68416     0.78316     0.81541    
 0.78316     0.68416     0.52390     0.33518     0.17328     0.77004E-01 0.35023E-01 0.20593E-01 0.17539E-01 0.20593E-01
 0.35023E-01 0.77004E-01 0.17328     0.33518     0.55530     0.68275     0.75022     0.75022     0.68275     0.55530    
 0.39591     0.24936     0.13923     0.65620E-01 0.31118E-01 0.20593E-01 0.20593E-01 0.31118E-01 0.65620E-01 0.13923    
 0.24936     0.39591     0.48244     0.54942     0.57537     0.54942     0.48244     0.39785     0.30976     0.22245    
 0.13588     0.65620E-01 0.35023E-01 0.27963E-01 0.35023E-01 0.65620E-01 0.13588     0.22245     0.30976     0.39785    
 0.29405     0.27570     0.27570     0.29405     0.30962     0.30975     0.28552     0.22245     0.13923     0.77004E-01
 0.53233E-01 0.53233E-01 0.77004E-01 0.13923     0.22245     0.28552     0.30975     0.30962     0.74674E-01 0.48998E-01
 0.74674E-01 0.15564     0.25111     0.30975     0.30976     0.24936     0.17328     0.11810     0.10100     0.11810    
 0.17328     0.24936     0.30976     0.30975     0.25111     0.15564     0.38617E-02 0.38617E-02 0.33036E-01 0.15564    
 0.30962     0.39785     0.39591     0.33518     0.25016     0.18566     0.18566     0.25016     0.33518     0.39591    
 0.39785     0.30962     0.15564     0.33036E-01 0.38617E-02 0.48998E-01 0.27570     0.54942     0.68275     0.68416    
 0.60468     0.46393     0.34122     0.34122     0.46393     0.60468     0.68416     0.68275     0.54942     0.27570    
 0.48998E-01 0.38617E-02 0.48998E-01 0.25551     0.59123     0.77593     0.81137     0.75787     0.63226     0.46003    
 0.38079     0.46003     0.63226     0.75787     0.81137     0.77593     0.59123     0.25551     0.48998E-01 0.15988E-01
 0.27570     0.59123     0.80692     0.87011     0.84525     0.74706     0.56135     0.40743     0.40743     0.56135    
 0.74706     0.84525     0.87011     0.80692     0.59123     0.27570     0.11117     0.11117     0.54942     0.77593    
 0.87011     0.87263     0.80166     0.62072     0.41247     0.33129     0.41247     0.62072     0.80166     0.87263    
 0.87011     0.77593     0.54942     0.31576     0.23307     0.31576     0.68275     0.81137     0.84525     0.80166    
 0.63896     0.40366     0.25977     0.25977     0.40366     0.63896     0.80166     0.84525     0.81137     0.68275    
 0.47793     0.34061     0.34061     0.47793     0.68416     0.75787     0.74706     0.62072     0.40366     0.23010    
 0.17371     0.23010     0.40366     0.62072     0.74706     0.75787     0.68416     0.53671     0.39348     0.34073    
 0.39348     0.53671     0.60468     0.63226     0.56135     0.41247     0.25977     0.17371     0.17371     0.25977    
 0.41247     0.56135     0.63226     0.60468     0.49660     0.37024     0.30335     0.30335     0.37024     0.49660    
 0.46393     0.46003     0.40743     0.33129     0.25977     0.23010     0.25977     0.33129     0.40743     0.46003    
 0.46393     0.40137     0.29514     0.22765     0.21231     0.22765     0.29514     0.40137     0.34122     0.38079    
 0.40743     0.41247     0.40366     0.40366     0.41247     0.40743     0.38079     0.34122     0.28908     0.20831    
 0.14217     0.12109     0.12109     0.14217     0.20831     0.28908     0.34122     0.46003     0.56135     0.62072    
 0.63896     0.62072     0.56135     0.46003     0.34122     0.24171     0.15753     0.90436E-01 0.61481E-01 0.55513E-01
 0.61481E-01 0.90436E-01 0.15753     0.24171     0.46393     0.63226     0.74706     0.80166     0.80166     0.74706    
 0.63226     0.46393     0.28908     0.15753     0.76708E-01 0.40728E-01 0.30490E-01 0.30490E-01 0.40728E-01 0.76708E-01
 0.15753     0.28908     0.60468     0.75787     0.84525     0.87263     0.84525     0.75787     0.60468     0.40137    
 0.20831     0.90436E-01 0.40728E-01 0.24992E-01 0.22109E-01 0.24992E-01 0.40728E-01 0.90436E-01 0.20831     0.40137    
 0.68416     0.81137     0.87011     0.87011     0.81137     0.68416     0.49660     0.29514     0.14217     0.61481E-01
 0.30490E-01 0.22109E-01 0.22109E-01 0.30490E-01 0.61481E-01 0.14217     0.29514     0.49660     0.68275     0.77593    
 0.80692     0.77593     0.68275     0.53671     0.37024     0.22765     0.12109     0.55513E-01 0.30490E-01 0.24992E-01
 0.30490E-01 0.55513E-01 0.12109     0.22765     0.37024     0.53671     0.54942     0.59123     0.59123     0.54942    
 0.47793     0.39348     0.30335     0.21231     0.12109     0.61481E-01 0.40728E-01 0.40728E-01 0.61481E-01 0.12109    
 0.21231     0.30335     0.39348     0.47793     0.27570     0.25551     0.27570     0.31576     0.34061     0.34073    
 0.30335     0.22765     0.14217     0.90436E-01 0.76708E-01 0.90436E-01 0.14217     0.22765     0.30335     0.34073    
 0.34061     0.31576     0.48998E-01 0.48998E-01 0.11117     0.23307     0.34061     0.39348     0.37024     0.29514    
 0.20831     0.15753     0.15753     0.20831     0.29514     0.37024     0.39348     0.34061     0.23307     0.11117    
 0.38617E-02 0.15988E-01 0.11117     0.31576     0.47793     0.53671     0.49660     0.40137     0.28908     0.24171    
 0.28908     0.40137     0.49660     0.53671     0.47793     0.31576     0.11117     0.15988E-01 0.74674E-01 0.27570    
 0.57537     0.75022     0.78316     0.72477     0.59629     0.43649     0.36674     0.43649     0.59629     0.72477    
 0.78316     0.75022     0.57537     0.27570     0.74674E-01 0.33036E-01 0.27570     0.59123     0.80692     0.87011    
 0.84525     0.74706     0.56135     0.40743     0.40743     0.56135     0.74706     0.84525     0.87011     0.80692    
 0.59123     0.27570     0.11117     0.11117     0.57537     0.80692     0.89633     0.89903     0.83301     0.65356    
 0.42923     0.33818     0.42923     0.65356     0.83301     0.89903     0.89633     0.80692     0.57537     0.31665    
 0.22372     0.31665     0.75022     0.87011     0.89903     0.85981     0.70047     0.42950     0.24831     0.24831    
 0.42950     0.70047     0.85981     0.89903     0.87011     0.75022     0.52741     0.35877     0.35877     0.52741    
 0.78316     0.84525     0.83301     0.70047     0.42467     0.18291     0.11234     0.18291     0.42467     0.70047    
 0.83301     0.84525     0.78316     0.63558     0.45304     0.37648     0.45304     0.63558     0.72477     0.74706    
 0.65356     0.42950     0.18291     0.71959E-01 0.71959E-01 0.18291     0.42950     0.65356     0.74706     0.72477    
 0.62597     0.47546     0.36445     0.36445     0.47546     0.62597     0.59629     0.56135     0.42923     0.24831    
 0.11234     0.71959E-01 0.11234     0.24831     0.42923     0.56135     0.59629     0.53702     0.41985     0.31188    
 0.27368     0.31188     0.41985     0.53702     0.43649     0.40743     0.33818     0.24831     0.18291     0.18291    
 0.24831     0.33818     0.40743     0.43649     0.40479     0.31954     0.22698     0.18320     0.18320     0.22698    
 0.31954     0.40479     0.36674     0.40743     0.42923     0.42950     0.42467     0.42950     0.42923     0.40743    
 0.36674     0.30928     0.23297     0.14896     0.10242     0.91489E-01 0.10242     0.14896     0.23297     0.30928    
 0.43649     0.56135     0.65356     0.70047     0.70047     0.65356     0.56135     0.43649     0.30928     0.20428    
 0.11535     0.62845E-01 0.45657E-01 0.45657E-01 0.62845E-01 0.11535     0.20428     0.30928     0.59629     0.74706    
 0.83301     0.85981     0.83301     0.74706     0.59629     0.40479     0.23297     0.11535     0.53368E-01 0.31744E-01
 0.27399E-01 0.31744E-01 0.53368E-01 0.11535     0.23297     0.40479     0.72477     0.84525     0.89903     0.89903    
 0.84525     0.72477     0.53702     0.31954     0.14896     0.62845E-01 0.31744E-01 0.24021E-01 0.24021E-01 0.31744E-01
 0.62845E-01 0.14896     0.31954     0.53702     0.78316     0.87011     0.89633     0.87011     0.78316     0.62597    
 0.41985     0.22698     0.10242     0.45657E-01 0.27399E-01 0.24021E-01 0.27399E-01 0.45657E-01 0.10242     0.22698    
 0.41985     0.62597     0.75022     0.80692     0.80692     0.75022     0.63558     0.47546     0.31188     0.18320    
 0.91489E-01 0.45657E-01 0.31744E-01 0.31744E-01 0.45657E-01 0.91489E-01 0.18320     0.31188     0.47546     0.63558    
 0.57537     0.59123     0.57537     0.52741     0.45304     0.36445     0.27368     0.18320     0.10242     0.62845E-01
 0.53368E-01 0.62845E-01 0.10242     0.18320     0.27368     0.36445     0.45304     0.52741     0.27570     0.27570    
 0.31665     0.35877     0.37648     0.36445     0.31188     0.22698     0.14896     0.11535     0.11535     0.14896    
 0.22698     0.31188     0.36445     0.37648     0.35877     0.31665     0.74674E-01 0.11117     0.22372     0.35877    
 0.45304     0.47546     0.41985     0.31954     0.23297     0.20428     0.23297     0.31954     0.41985     0.47546    
 0.45304     0.35877     0.22372     0.11117     0.33036E-01 0.11117     0.31665     0.52741     0.63558     0.62597    
 0.53702     0.40479     0.30928     0.30928     0.40479     0.53702     0.62597     0.63558     0.52741     0.31665    
 0.11117     0.33036E-01 0.29405     0.54942     0.75022     0.81541     0.78532     0.67727     0.50357     0.37792    
 0.37792     0.50357     0.67727     0.78532     0.81541     0.75022     0.54942     0.29405     0.15564     0.15564    
 0.54942     0.77593     0.87011     0.87263     0.80166     0.62072     0.41247     0.33129     0.41247     0.62072    
 0.80166     0.87263     0.87011     0.77593     0.54942     0.31576     0.23307     0.31576     0.75022     0.87011    
 0.89903     0.85981     0.70047     0.42950     0.24831     0.24831     0.42950     0.70047     0.85981     0.89903    
 0.87011     0.75022     0.52741     0.35877     0.35877     0.52741     0.81541     0.87263     0.85981     0.72843    
 0.43123     0.16188     0.88772E-01 0.16188     0.43123     0.72843     0.85981     0.87263     0.81541     0.67037    
 0.47498     0.38927     0.47498     0.67037     0.78532     0.80166     0.70047     0.43123     0.12756     0.26575E-01
 0.26575E-01 0.12756     0.43123     0.70047     0.80166     0.78532     0.69632     0.53621     0.39721     0.39721    
 0.53621     0.69632     0.67727     0.62072     0.42950     0.16188     0.26575E-01 0.75494E-02 0.26575E-01 0.16188    
 0.42950     0.62072     0.67727     0.62810     0.51391     0.37410     0.31327     0.37410     0.51391     0.62810    
 0.50357     0.41247     0.24831     0.88772E-01 0.26575E-01 0.26575E-01 0.88772E-01 0.24831     0.41247     0.50357    
 0.49628     0.41876     0.30970     0.23527     0.23527     0.30970     0.41876     0.49628     0.37792     0.33129    
 0.24831     0.16188     0.12756     0.16188     0.24831     0.33129     0.37792     0.37138     0.30765     0.21804    
 0.15207     0.13248     0.15207     0.21804     0.30765     0.37138     0.37792     0.41247     0.42950     0.43123    
 0.43123     0.42950     0.41247     0.37792     0.32553     0.25158     0.16235     0.93702E-01 0.67051E-01 0.67051E-01
 0.93702E-01 0.16235     0.25158     0.32553     0.50357     0.62072     0.70047     0.72843     0.70047     0.62072    
 0.50357     0.37138     0.25158     0.14993     0.74088E-01 0.41551E-01 0.34047E-01 0.41551E-01 0.74088E-01 0.14993    
 0.25158     0.37138     0.67727     0.80166     0.85981     0.85981     0.80166     0.67727     0.49628     0.30765    
 0.16235     0.74088E-01 0.36110E-01 0.25385E-01 0.25385E-01 0.36110E-01 0.74088E-01 0.16235     0.30765     0.49628    
 0.78532     0.87263     0.89903     0.87263     0.78532     0.62810     0.41876     0.21804     0.93702E-01 0.41551E-01
 0.25385E-01 0.22534E-01 0.25385E-01 0.41551E-01 0.93702E-01 0.21804     0.41876     0.62810     0.81541     0.87011    
 0.87011     0.81541     0.69632     0.51391     0.30970     0.15207     0.67051E-01 0.34047E-01 0.25385E-01 0.25385E-01
 0.34047E-01 0.67051E-01 0.15207     0.30970     0.51391     0.69632     0.75022     0.77593     0.75022     0.67037    
 0.53621     0.37410     0.23527     0.13248     0.67051E-01 0.41551E-01 0.36110E-01 0.41551E-01 0.67051E-01 0.13248    
 0.23527     0.37410     0.53621     0.67037     0.54942     0.54942     0.52741     0.47498     0.39721     0.31327    
 0.23527     0.15207     0.93702E-01 0.74088E-01 0.74088E-01 0.93702E-01 0.15207     0.23527     0.31327     0.39721    
 0.47498     0.52741     0.29405     0.31576     0.35877     0.38927     0.39721     0.37410     0.30970     0.21804    
 0.16235     0.14993     0.16235     0.21804     0.30970     0.37410     0.39721     0.38927     0.35877     0.31576    
 0.15564     0.23307     0.35877     0.47498     0.53621     0.51391     0.41876     0.30765     0.25158     0.25158    
 0.30765     0.41876     0.51391     0.53621     0.47498     0.35877     0.23307     0.15564     0.15564     0.31576    
 0.52741     0.67037     0.69632     0.62810     0.49628     0.37138     0.32553     0.37138     0.49628     0.62810    
 0.69632     0.67037     0.52741     0.31576     0.15564     0.10663     0.48244     0.68275     0.78316     0.78532    
 0.70371     0.53122     0.36939     0.31215     0.36939     0.53122     0.70371     0.78532     0.78316     0.68275    
 0.48244     0.30962     0.25111     0.30962     0.68275     0.81137     0.84525     0.80166     0.63896     0.40366    
 0.25977     0.25977     0.40366     0.63896     0.80166     0.84525     0.81137     0.68275     0.47793     0.34061    
 0.34061     0.47793     0.78316     0.84525     0.83301     0.70047     0.42467     0.18291     0.11234     0.18291    
 0.42467     0.70047     0.83301     0.84525     0.78316     0.63558     0.45304     0.37648     0.45304     0.63558    
 0.78532     0.80166     0.70047     0.43123     0.12756     0.26575E-01 0.26575E-01 0.12756     0.43123     0.70047    
 0.80166     0.78532     0.69632     0.53621     0.39721     0.39721     0.53621     0.69632     0.70371     0.63896    
 0.42467     0.12756     0.10284E-01 0.12149E-02 0.10284E-01 0.12756     0.42467     0.63896     0.70371     0.66044    
 0.54941     0.39746     0.32705     0.39746     0.54941     0.66044     0.53122     0.40366     0.18291     0.26575E-01
 0.12149E-02 0.12149E-02 0.26575E-01 0.18291     0.40366     0.53122     0.54313     0.47777     0.36349     0.26559    
 0.26559     0.36349     0.47777     0.54313     0.36939     0.25977     0.11234     0.26575E-01 0.10284E-01 0.26575E-01
 0.11234     0.25977     0.36939     0.40288     0.35727     0.27664     0.19717     0.16683     0.19717     0.27664    
 0.35727     0.40288     0.31215     0.25977     0.18291     0.12756     0.12756     0.18291     0.25977     0.31215    
 0.32487     0.27964     0.19967     0.12700     0.93170E-01 0.93170E-01 0.12700     0.19967     0.27964     0.32487    
 0.36939     0.40366     0.42467     0.43123     0.42467     0.40366     0.36939     0.32487     0.26038     0.17632    
 0.95376E-01 0.54356E-01 0.44362E-01 0.54356E-01 0.95376E-01 0.17632     0.26038     0.32487     0.53122     0.63896    
 0.70047     0.70047     0.63896     0.53122     0.40288     0.27964     0.17632     0.90320E-01 0.42760E-01 0.27607E-01
 0.27607E-01 0.42760E-01 0.90320E-01 0.17632     0.27964     0.40288     0.70371     0.80166     0.83301     0.80166    
 0.70371     0.54313     0.35727     0.19967     0.95376E-01 0.42760E-01 0.24244E-01 0.20316E-01 0.24244E-01 0.42760E-01
 0.95376E-01 0.19967     0.35727     0.54313     0.78532     0.84525     0.84525     0.78532     0.66044     0.47777    
 0.27664     0.12700     0.54356E-01 0.27607E-01 0.20316E-01 0.20316E-01 0.27607E-01 0.54356E-01 0.12700     0.27664    
 0.47777     0.66044     0.78316     0.81137     0.78316     0.69632     0.54941     0.36349     0.19717     0.93170E-01
 0.44362E-01 0.27607E-01 0.24244E-01 0.27607E-01 0.44362E-01 0.93170E-01 0.19717     0.36349     0.54941     0.69632    
 0.68275     0.68275     0.63558     0.53621     0.39746     0.26559     0.16683     0.93170E-01 0.54356E-01 0.42760E-01
 0.42760E-01 0.54356E-01 0.93170E-01 0.16683     0.26559     0.39746     0.53621     0.63558     0.48244     0.47793    
 0.45304     0.39721     0.32705     0.26559     0.19717     0.12700     0.95376E-01 0.90320E-01 0.95376E-01 0.12700    
 0.19717     0.26559     0.32705     0.39721     0.45304     0.47793     0.30962     0.34061     0.37648     0.39721    
 0.39746     0.36349     0.27664     0.19967     0.17632     0.17632     0.19967     0.27664     0.36349     0.39746    
 0.39721     0.37648     0.34061     0.30962     0.25111     0.34061     0.45304     0.53621     0.54941     0.47777    
 0.35727     0.27964     0.26038     0.27964     0.35727     0.47777     0.54941     0.53621     0.45304     0.34061    
 0.25111     0.21824     0.30962     0.47793     0.63558     0.69632     0.66044     0.54313     0.40288     0.32487    
 0.32487     0.40288     0.54313     0.66044     0.69632     0.63558     0.47793     0.30962     0.21824     0.21824    
 0.55530     0.68416     0.72477     0.67727     0.53122     0.36156     0.26920     0.26920     0.36156     0.53122    
 0.67727     0.72477     0.68416     0.55530     0.39785     0.30975     0.30975     0.39785     0.68416     0.75787    
 0.74706     0.62072     0.40366     0.23010     0.17371     0.23010     0.40366     0.62072     0.74706     0.75787    
 0.68416     0.53671     0.39348     0.34073     0.39348     0.53671     0.72477     0.74706     0.65356     0.42950    
 0.18291     0.71959E-01 0.71959E-01 0.18291     0.42950     0.65356     0.74706     0.72477     0.62597     0.47546    
 0.36445     0.36445     0.47546     0.62597     0.67727     0.62072     0.42950     0.16188     0.26575E-01 0.75494E-02
 0.26575E-01 0.16188     0.42950     0.62072     0.67727     0.62810     0.51391     0.37410     0.31327     0.37410    
 0.51391     0.62810     0.53122     0.40366     0.18291     0.26575E-01 0.12149E-02 0.12149E-02 0.26575E-01 0.18291    
 0.40366     0.53122     0.54313     0.47777     0.36349     0.26559     0.26559     0.36349     0.47777     0.54313    
 0.36156     0.23010     0.71959E-01 0.75494E-02 0.12149E-02 0.75494E-02 0.71959E-01 0.23010     0.36156     0.40955    
 0.37352     0.30046     0.21633     0.18035     0.21633     0.30046     0.37352     0.40955     0.26920     0.17371    
 0.71959E-01 0.26575E-01 0.26575E-01 0.71959E-01 0.17371     0.26920     0.31332     0.28523     0.21736     0.15076    
 0.11348     0.11348     0.15076     0.21736     0.28523     0.31332     0.26920     0.23010     0.18291     0.16188    
 0.18291     0.23010     0.26920     0.28356     0.25362     0.18148     0.10799     0.67344E-01 0.57106E-01 0.67344E-01
 0.10799     0.18148     0.25362     0.28356     0.36156     0.40366     0.42950     0.42950     0.40366     0.36156    
 0.31332     0.25362     0.17857     0.98778E-01 0.48739E-01 0.32085E-01 0.32085E-01 0.48739E-01 0.98778E-01 0.17857    
 0.25362     0.31332     0.53122     0.62072     0.65356     0.62072     0.53122     0.40955     0.28523     0.18148    
 0.98778E-01 0.45012E-01 0.24074E-01 0.19313E-01 0.24074E-01 0.45012E-01 0.98778E-01 0.18148     0.28523     0.40955    
 0.67727     0.74706     0.74706     0.67727     0.54313     0.37352     0.21736     0.10799     0.48739E-01 0.24074E-01
 0.16459E-01 0.16459E-01 0.24074E-01 0.48739E-01 0.10799     0.21736     0.37352     0.54313     0.72477     0.75787    
 0.72477     0.62810     0.47777     0.30046     0.15076     0.67344E-01 0.32085E-01 0.19313E-01 0.16459E-01 0.19313E-01
 0.32085E-01 0.67344E-01 0.15076     0.30046     0.47777     0.62810     0.68416     0.68416     0.62597     0.51391    
 0.36349     0.21633     0.11348     0.57106E-01 0.32085E-01 0.24074E-01 0.24074E-01 0.32085E-01 0.57106E-01 0.11348    
 0.21633     0.36349     0.51391     0.62597     0.55530     0.53671     0.47546     0.37410     0.26559     0.18035    
 0.11348     0.67344E-01 0.48739E-01 0.45012E-01 0.48739E-01 0.67344E-01 0.11348     0.18035     0.26559     0.37410    
 0.47546     0.53671     0.39785     0.39348     0.36445     0.31327     0.26559     0.21633     0.15076     0.10799    
 0.98778E-01 0.98778E-01 0.10799     0.15076     0.21633     0.26559     0.31327     0.36445     0.39348     0.39785    
 0.30975     0.34073     0.36445     0.37410     0.36349     0.30046     0.21736     0.18148     0.17857     0.18148    
 0.21736     0.30046     0.36349     0.37410     0.36445     0.34073     0.30975     0.29519     0.30975     0.39348    
 0.47546     0.51391     0.47777     0.37352     0.28523     0.25362     0.25362     0.28523     0.37352     0.47777    
 0.51391     0.47546     0.39348     0.30975     0.26205     0.26205     0.39785     0.53671     0.62597     0.62810    
 0.54313     0.40955     0.31332     0.28356     0.31332     0.40955     0.54313     0.62810     0.62597     0.53671    
 0.39785     0.29519     0.26205     0.29519     0.52390     0.60468     0.59629     0.50357     0.36939     0.26920    
 0.23527     0.26920     0.36939     0.50357     0.59629     0.60468     0.52390     0.39591     0.30976     0.28552    
 0.30976     0.39591     0.60468     0.63226     0.56135     0.41247     0.25977     0.17371     0.17371     0.25977    
 0.41247     0.56135     0.63226     0.60468     0.49660     0.37024     0.30335     0.30335     0.37024     0.49660    
 0.59629     0.56135     0.42923     0.24831     0.11234     0.71959E-01 0.11234     0.24831     0.42923     0.56135    
 0.59629     0.53702     0.41985     0.31188     0.27368     0.31188     0.41985     0.53702     0.50357     0.41247    
 0.24831     0.88772E-01 0.26575E-01 0.26575E-01 0.88772E-01 0.24831     0.41247     0.50357     0.49628     0.41876    
 0.30970     0.23527     0.23527     0.30970     0.41876     0.49628     0.36939     0.25977     0.11234     0.26575E-01
 0.10284E-01 0.26575E-01 0.11234     0.25977     0.36939     0.40288     0.35727     0.27664     0.19717     0.16683    
 0.19717     0.27664     0.35727     0.40288     0.26920     0.17371     0.71959E-01 0.26575E-01 0.26575E-01 0.71959E-01
 0.17371     0.26920     0.31332     0.28523     0.21736     0.15076     0.11348     0.11348     0.15076     0.21736    
 0.28523     0.31332     0.23527     0.17371     0.11234     0.88772E-01 0.11234     0.17371     0.23527     0.26741    
 0.24729     0.17916     0.11141     0.73211E-01 0.63418E-01 0.73211E-01 0.11141     0.17916     0.24729     0.26741    
 0.26920     0.25977     0.24831     0.24831     0.25977     0.26920     0.26741     0.23874     0.17264     0.97869E-01
 0.51679E-01 0.36644E-01 0.36644E-01 0.51679E-01 0.97869E-01 0.17264     0.23874     0.26741     0.36939     0.41247    
 0.42923     0.41247     0.36939     0.31332     0.24729     0.17264     0.97892E-01 0.45082E-01 0.24678E-01 0.20253E-01
 0.24678E-01 0.45082E-01 0.97892E-01 0.17264     0.24729     0.31332     0.50357     0.56135     0.56135     0.50357    
 0.40288     0.28523     0.17916     0.97869E-01 0.45082E-01 0.21456E-01 0.14124E-01 0.14124E-01 0.21456E-01 0.45082E-01
 0.97869E-01 0.17916     0.28523     0.40288     0.59629     0.63226     0.59629     0.49628     0.35727     0.21736    
 0.11141     0.51679E-01 0.24678E-01 0.14124E-01 0.11508E-01 0.14124E-01 0.24678E-01 0.51679E-01 0.11141     0.21736    
 0.35727     0.49628     0.60468     0.60468     0.53702     0.41876     0.27664     0.15076     0.73211E-01 0.36644E-01
 0.20253E-01 0.14124E-01 0.14124E-01 0.20253E-01 0.36644E-01 0.73211E-01 0.15076     0.27664     0.41876     0.53702    
 0.52390     0.49660     0.41985     0.30970     0.19717     0.11348     0.63418E-01 0.36644E-01 0.24678E-01 0.21456E-01
 0.24678E-01 0.36644E-01 0.63418E-01 0.11348     0.19717     0.30970     0.41985     0.49660     0.39591     0.37024    
 0.31188     0.23527     0.16683     0.11348     0.73211E-01 0.51679E-01 0.45082E-01 0.45082E-01 0.51679E-01 0.73211E-01
 0.11348     0.16683     0.23527     0.31188     0.37024     0.39591     0.30976     0.30335     0.27368     0.23527    
 0.19717     0.15076     0.11141     0.97869E-01 0.97892E-01 0.97869E-01 0.11141     0.15076     0.19717     0.23527    
 0.27368     0.30335     0.30976     0.30712     0.28552     0.30335     0.31188     0.30970     0.27664     0.21736    
 0.17916     0.17264     0.17264     0.17916     0.21736     0.27664     0.30970     0.31188     0.30335     0.28552    
 0.26821     0.26821     0.30976     0.37024     0.41985     0.41876     0.35727     0.28523     0.24729     0.23874    
 0.24729     0.28523     0.35727     0.41876     0.41985     0.37024     0.30976     0.26821     0.25473     0.26821    
 0.39591     0.49660     0.53702     0.49628     0.40288     0.31332     0.26741     0.26741     0.31332     0.40288    
 0.49628     0.53702     0.49660     0.39591     0.30712     0.26821     0.26821     0.30712     0.43365     0.46393    
 0.43649     0.37792     0.31215     0.26920     0.26920     0.31215     0.37792     0.43649     0.46393     0.43365    
 0.33518     0.24936     0.22245     0.22245     0.24936     0.33518     0.46393     0.46003     0.40743     0.33129    
 0.25977     0.23010     0.25977     0.33129     0.40743     0.46003     0.46393     0.40137     0.29514     0.22765    
 0.21231     0.22765     0.29514     0.40137     0.43649     0.40743     0.33818     0.24831     0.18291     0.18291    
 0.24831     0.33818     0.40743     0.43649     0.40479     0.31954     0.22698     0.18320     0.18320     0.22698    
 0.31954     0.40479     0.37792     0.33129     0.24831     0.16188     0.12756     0.16188     0.24831     0.33129    
 0.37792     0.37138     0.30765     0.21804     0.15207     0.13248     0.15207     0.21804     0.30765     0.37138    
 0.31215     0.25977     0.18291     0.12756     0.12756     0.18291     0.25977     0.31215     0.32487     0.27964    
 0.19967     0.12700     0.93170E-01 0.93170E-01 0.12700     0.19967     0.27964     0.32487     0.26920     0.23010    
 0.18291     0.16188     0.18291     0.23010     0.26920     0.28356     0.25362     0.18148     0.10799     0.67344E-01
 0.57106E-01 0.67344E-01 0.10799     0.18148     0.25362     0.28356     0.26920     0.25977     0.24831     0.24831    
 0.25977     0.26920     0.26741     0.23874     0.17264     0.97869E-01 0.51679E-01 0.36644E-01 0.36644E-01 0.51679E-01
 0.97869E-01 0.17264     0.23874     0.26741     0.31215     0.33129     0.33818     0.33129     0.31215     0.28356    
 0.23874     0.17123     0.96537E-01 0.44513E-01 0.25143E-01 0.21244E-01 0.25143E-01 0.44513E-01 0.96537E-01 0.17123    
 0.23874     0.28356     0.37792     0.40743     0.40743     0.37792     0.32487     0.25362     0.17264     0.96537E-01
 0.42819E-01 0.19772E-01 0.13270E-01 0.13270E-01 0.19772E-01 0.42819E-01 0.96537E-01 0.17264     0.25362     0.32487    
 0.43649     0.46003     0.43649     0.37138     0.27964     0.18148     0.97869E-01 0.44513E-01 0.19772E-01 0.10815E-01
 0.86693E-02 0.10815E-01 0.19772E-01 0.44513E-01 0.97869E-01 0.18148     0.27964     0.37138     0.46393     0.46393    