Carbon Diamond (band)                   
   3.57000000000000     
     0.000000    0.489488    0.489488
     0.489488    0.000000    0.489488
     0.489488    0.489488    0.000000
   C 
     2
Direct
  0.000000  0.000000  0.000000
  0.250000  0.250000  0.250000
 
   36   36   36
 0.32170620931E+02 0.15486947932E+02 -.25417530179E+02 -.68133631607E+02 -.93872608224E+02
 -.94634407058E+02 -.74501040640E+02 -.46526362094E+02 -.30038666437E+02 -.23868561802E+02
 -.17606877720E+02 -.13555466715E+02 -.10650615430E+02 -.88012127109E+01 -.75817696566E+01
 -.67260037359E+01 -.61637515086E+01 -.58204579757E+01 -.57299863591E+01 -.58274898598E+01
 -.61724748258E+01 -.67469807115E+01 -.75827459537E+01 -.88359555393E+01 -.10650128042E+02
 -.13525160069E+02 -.17592605627E+02 -.23872460442E+02 -.30029723866E+02 -.46523610923E+02
 -.74495536064E+02 -.94634222292E+02 -.93846793293E+02 -.68135738730E+02 -.25395636003E+02
 0.15493779139E+02 0.15486947932E+02 -.13235702765E+02 -.54214627546E+02 -.86427070277E+02
 -.97506844607E+02 -.85364988401E+02 -.58875959477E+02 -.35573252002E+02 -.26803560066E+02
 -.20960978084E+02 -.15837317241E+02 -.12805098840E+02 -.10689444673E+02 -.94937141843E+01
 -.86008641291E+01 -.81501583487E+01 -.77601563155E+01 -.76310540238E+01 -.75894237502E+01
 -.77738108586E+01 -.80962087818E+01 -.86145453571E+01 -.94477793955E+01 -.10692269630E+02
 -.12817489400E+02 -.15876929183E+02 -.20946296184E+02 -.26842353199E+02 -.35574483588E+02
 -.58895279103E+02 -.85362806926E+02 -.97412959412E+02 -.86544694087E+02 -.54112794706E+02
 -.13360368483E+02 0.15320336337E+02 -.25417530179E+02 -.54214627546E+02 -.82737724781E+02
 -.97172166403E+02 -.90767779781E+02 -.68039981928E+02 -.42030796712E+02 -.29155408807E+02
 -.23902258879E+02 -.18087647230E+02 -.14865167403E+02 -.12471748973E+02 -.11334102469E+02
 -.10444273936E+02 -.10147527307E+02 -.98458704473E+01 -.98316015161E+01 -.97241894868E+01
 -.98697495644E+01 -.98717839307E+01 -.10188740781E+02 -.10466713480E+02 -.11311032579E+02
 -.12471086754E+02 -.14856921322E+02 -.18119166881E+02 -.23833256944E+02 -.29205745714E+02
 -.42080099854E+02 -.68072013264E+02 -.90757807002E+02 -.97123095055E+02 -.82832239179E+02
 -.54187212965E+02 -.25375327974E+02 -.13437220340E+02 -.68133631607E+02 -.86427070277E+02
 -.97172166403E+02 -.92393068847E+02 -.72737858475E+02 -.47170250462E+02 -.31309173713E+02
 -.25879837454E+02 -.20141186652E+02 -.16605110317E+02 -.14174747354E+02 -.12909069848E+02
 -.12310361654E+02 -.12289547170E+02 -.12238149433E+02 -.12379227337E+02 -.12383908770E+02
 -.12361064081E+02 -.12288846669E+02 -.12229569834E+02 -.12216001373E+02 -.12358682993E+02
 -.12970026525E+02 -.14179306878E+02 -.16544349690E+02 -.20161305189E+02 -.25835340659E+02
 -.31282323375E+02 -.47087090906E+02 -.72735055916E+02 -.92456856523E+02 -.97156364942E+02
 -.86565997850E+02 -.68143959654E+02 -.54361785728E+02 -.54267672519E+02 -.93872608224E+02
 -.97506844607E+02 -.90767779781E+02 -.72737858475E+02 -.48942922882E+02 -.32665497597E+02
 -.26885777372E+02 -.21716493855E+02 -.17880410972E+02 -.15635322537E+02 -.14371590998E+02
 -.14146721279E+02 -.14223938534E+02 -.14615324903E+02 -.14853648188E+02 -.15239922874E+02
 -.15277493455E+02 -.15329925635E+02 -.14943690871E+02 -.14597133189E+02 -.14158016918E+02
 -.14106858154E+02 -.14387897232E+02 -.15641005158E+02 -.17809770520E+02 -.21733883378E+02
 -.26918738256E+02 -.32672342128E+02 -.48991539936E+02 -.72587630841E+02 -.90724565477E+02
 -.97449742317E+02 -.93701043989E+02 -.86680243257E+02 -.83041995743E+02 -.86677519692E+02
 -.94634407058E+02 -.85364988401E+02 -.68039981928E+02 -.47170250462E+02 -.32665497597E+02
 -.27341890579E+02 -.22498679165E+02 -.18755591281E+02 -.16555226895E+02 -.15635322537E+02
 -.15564845703E+02 -.15875412988E+02 -.16623988366E+02 -.17564877459E+02 -.18288018790E+02
 -.18762868205E+02 -.18667410308E+02 -.18243428441E+02 -.17609093671E+02 -.16788397095E+02
 -.15944290073E+02 -.15498394282E+02 -.15571142683E+02 -.16609079176E+02 -.18706700600E+02
 -.22467153529E+02 -.27383375975E+02 -.32528890752E+02 -.47250308907E+02 -.68010883216E+02
 -.85431851349E+02 -.94853789242E+02 -.97418641976E+02 -.97190688384E+02 -.97162107510E+02
 -.97352166313E+02 -.74501040640E+02 -.58875959477E+02 -.42030796712E+02 -.31309173713E+02
 -.26885777372E+02 -.22498679165E+02 -.18962279396E+02 -.17108727578E+02 -.16380467707E+02
 -.16605110317E+02 -.17165946019E+02 -.18607700767E+02 -.20252413859E+02 -.21612616997E+02
 -.22402094087E+02 -.22745097838E+02 -.22394908645E+02 -.21459574493E+02 -.19963777380E+02
 -.18691098856E+02 -.17330093674E+02 -.16530363490E+02 -.16304117851E+02 -.17127496074E+02
 -.19018795822E+02 -.22429680148E+02 -.27067554348E+02 -.31156581875E+02 -.42182002430E+02
 -.58833940633E+02 -.74283095811E+02 -.85036633989E+02 -.90158929141E+02 -.91875938413E+02
 -.90207926423E+02 -.84987250822E+02 -.46526362094E+02 -.35573252002E+02 -.29155408807E+02
 -.25879837454E+02 -.21716493855E+02 -.18755591281E+02 -.17108727578E+02 -.16667512523E+02
 -.17072145752E+02 -.18087647230E+02 -.20131257418E+02 -.22314844569E+02 -.23981786799E+02
 -.24913379271E+02 -.25481804613E+02 -.25489693223E+02 -.25150722067E+02 -.24079496423E+02
 -.22087415702E+02 -.19979274827E+02 -.18310035061E+02 -.16991016654E+02 -.16636645435E+02
 -.17040666604E+02 -.18822906766E+02 -.21528957455E+02 -.25995305210E+02 -.29130333973E+02
 -.35391809495E+02 -.47009426988E+02 -.58448771363E+02 -.67270421166E+02 -.71639172643E+02
 -.71769317339E+02 -.67314320699E+02 -.58490028903E+02 -.30038666437E+02 -.26803560066E+02
 -.23902258879E+02 -.20141186652E+02 -.17880410972E+02 -.16555226895E+02 -.16380467707E+02
 -.17072145752E+02 -.18426786760E+02 -.20960978084E+02 -.23503539530E+02 -.25385183909E+02
 -.26652949402E+02 -.27611677122E+02 -.28015638148E+02 -.27619244879E+02 -.26818618541E+02
 -.25705425612E+02 -.23430899742E+02 -.20711636138E+02 -.18614210971E+02 -.17005169568E+02
 -.16361661295E+02 -.16551493488E+02 -.17906782976E+02 -.20167051896E+02 -.23667730208E+02
 -.27240977901E+02 -.29629564553E+02 -.34866964917E+02 -.41346336217E+02 -.46226133983E+02
 -.47912798132E+02 -.46078941193E+02 -.41270036909E+02 -.35056459120E+02 -.23868561802E+02
 -.20960978084E+02 -.18087647230E+02 -.16605110317E+02 -.15635322537E+02 -.15635322537E+02
 -.16605110317E+02 -.18087647230E+02 -.20960978084E+02 -.23868561802E+02 -.26062512931E+02
 -.27893351105E+02 -.29677755877E+02 -.30953685942E+02 -.30809176605E+02 -.29576631490E+02
 -.27838138930E+02 -.26467669131E+02 -.23875540376E+02 -.20725251822E+02 -.18284923777E+02
 -.16491152760E+02 -.15594660351E+02 -.15594660351E+02 -.16491152760E+02 -.18284923777E+02
 -.20725251822E+02 -.23875540376E+02 -.26467669131E+02 -.27838138930E+02 -.29576631490E+02
 -.30809176605E+02 -.30953685942E+02 -.29677755877E+02 -.27893351105E+02 -.26062512931E+02
 -.17606877720E+02 -.15837317241E+02 -.14865167403E+02 -.14174747354E+02 -.14371590998E+02
 -.15564845703E+02 -.17165946019E+02 -.20131257418E+02 -.23503539530E+02 -.26062512931E+02
 -.28385825057E+02 -.31052142455E+02 -.33518609416E+02 -.34384884719E+02 -.33386845311E+02
 -.30849586124E+02 -.28234363289E+02 -.26479372771E+02 -.23417037806E+02 -.19985051071E+02
 -.17394289554E+02 -.15455088648E+02 -.14454017126E+02 -.14189772923E+02 -.14777134366E+02
 -.15936333385E+02 -.17698616401E+02 -.19609778070E+02 -.21791482080E+02 -.23592245715E+02
 -.24416343421E+02 -.24634881611E+02 -.24274532675E+02 -.23458596111E+02 -.21974406808E+02
 -.19838424438E+02 -.13555466715E+02 -.12805098840E+02 -.12471748973E+02 -.12909069848E+02
 -.14146721279E+02 -.15875412988E+02 -.18607700767E+02 -.22314844569E+02 -.25385183909E+02
 -.27893351105E+02 -.31052142455E+02 -.34515947121E+02 -.36732037785E+02 -.36713452493E+02
 -.34398481203E+02 -.30739151471E+02 -.27875839808E+02 -.25752389152E+02 -.22066061050E+02
 -.18631450020E+02 -.15974426972E+02 -.14056754793E+02 -.12955220755E+02 -.12541779845E+02
 -.12776535110E+02 -.13476452083E+02 -.14523700127E+02 -.15739853497E+02 -.16856548558E+02
 -.17699053624E+02 -.18386114590E+02 -.18388676200E+02 -.17919518560E+02 -.16796939741E+02
 -.15585916287E+02 -.14419082062E+02 -.10650615430E+02 -.10689444673E+02 -.11334102469E+02
 -.12310361654E+02 -.14223938534E+02 -.16623988366E+02 -.20252413859E+02 -.23981786799E+02
 -.26652949402E+02 -.29677755877E+02 -.33518609416E+02 -.36732037785E+02 -.38032297205E+02
 -.36670243744E+02 -.33325969029E+02 -.29351472434E+02 -.26948405611E+02 -.24073541101E+02
 -.19990140735E+02 -.16811719393E+02 -.14160880018E+02 -.12402700226E+02 -.11222907283E+02
 -.10739365484E+02 -.10659568303E+02 -.10995362858E+02 -.11505859838E+02 -.12129968354E+02
 -.12739734171E+02 -.13223382071E+02 -.13259834210E+02 -.13119228489E+02 -.12662693824E+02
 -.12200557832E+02 -.11619589835E+02 -.11028368722E+02 -.88012127109E+01 -.94937141843E+01
 -.10444273936E+02 -.12289547170E+02 -.14615324903E+02 -.17564877459E+02 -.21612616997E+02
 -.24913379271E+02 -.27611677122E+02 -.30953685942E+02 -.34384884719E+02 -.36713452493E+02
 -.36670243744E+02 -.34379200037E+02 -.30552629892E+02 -.27581497319E+02 -.25322420862E+02
 -.21335924653E+02 -.17621194656E+02 -.14566751966E+02 -.12204258558E+02 -.10529230041E+02
 -.94266824782E+01 -.88299324881E+01 -.85655771939E+01 -.85920755056E+01 -.87353206890E+01
 -.90224238747E+01 -.92016712348E+01 -.93367524962E+01 -.93890462360E+01 -.92649722765E+01
 -.90260391740E+01 -.87216771059E+01 -.84766162135E+01 -.85720683962E+01 -.75817696566E+01
 -.86008641291E+01 -.10147527307E+02 -.12238149433E+02 -.14853648188E+02 -.18288018790E+02
 -.22402094087E+02 -.25481804613E+02 -.28015638148E+02 -.30809176605E+02 -.33386845311E+02
 -.34398481203E+02 -.33325969029E+02 -.30552629892E+02 -.27833175120E+02 -.25857410307E+02
 -.22263419376E+02 -.18292152046E+02 -.14984295623E+02 -.12215935279E+02 -.10147500271E+02
 -.86120364513E+01 -.75982462788E+01 -.69196540684E+01 -.65407143554E+01 -.63296617674E+01
 -.62922126130E+01 -.63037046810E+01 -.63998224361E+01 -.64470095086E+01 -.63575112445E+01
 -.63088690044E+01 -.62432923624E+01 -.63726706297E+01 -.66005316710E+01 -.69464511370E+01
 -.67260037359E+01 -.81501583487E+01 -.98458704473E+01 -.12379227337E+02 -.15239922874E+02
 -.18762868205E+02 -.22745097838E+02 -.25489693223E+02 -.27619244879E+02 -.29576631490E+02
 -.30849586124E+02 -.30739151471E+02 -.29351472434E+02 -.27581497319E+02 -.25857410307E+02
 -.22578272295E+02 -.18684051661E+02 -.15279824281E+02 -.12290019727E+02 -.99338324871E+01
 -.80876405723E+01 -.67535930665E+01 -.57620262770E+01 -.50758872024E+01 -.45729730453E+01
 -.42745674758E+01 -.40953337090E+01 -.40602067414E+01 -.40114105534E+01 -.40039081089E+01
 -.40613520337E+01 -.41182318309E+01 -.42983611634E+01 -.45632287025E+01 -.49972010351E+01
 -.57733396567E+01 -.61637515086E+01 -.77601563155E+01 -.98316015161E+01 -.12383908770E+02
 -.15277493455E+02 -.18667410308E+02 -.22394908645E+02 -.25150722067E+02 -.26818618541E+02
 -.27838138930E+02 -.28234363289E+02 -.27875839808E+02 -.26948405611E+02 -.25322420862E+02
 -.22263419376E+02 -.18684051661E+02 -.15384784271E+02 -.12339534894E+02 -.98211562411E+01
 -.77606180987E+01 -.61755950728E+01 -.49400082656E+01 -.39971100849E+01 -.32590537215E+01
 -.27177937194E+01 -.23580328496E+01 -.21642634253E+01 -.20725502438E+01 -.20708868525E+01
 -.21121540719E+01 -.21358494770E+01 -.23572049625E+01 -.26734200834E+01 -.32817205758E+01
 -.40436302037E+01 -.49546206445E+01 -.58204579757E+01 -.76310540238E+01 -.97241894868E+01
 -.12361064081E+02 -.15329925635E+02 -.18243428441E+02 -.21459574493E+02 -.24079496423E+02
 -.25705425612E+02 -.26467669131E+02 -.26479372771E+02 -.25752389152E+02 -.24073541101E+02
 -.21335924653E+02 -.18292152046E+02 -.15279824281E+02 -.12339534894E+02 -.97904520564E+01
 -.75986311512E+01 -.58376542685E+01 -.43935255552E+01 -.32370173028E+01 -.22723518065E+01
 -.15159413915E+01 -.95054093287E+00 -.60316183122E+00 -.40980341304E+00 -.35039581583E+00
 -.32487719294E+00 -.39112385844E+00 -.62139039156E+00 -.96197992274E+00 -.15483591107E+01
 -.22732545490E+01 -.31752801996E+01 -.44059349842E+01 -.57299863591E+01 -.75894237502E+01
 -.98697495644E+01 -.12288846669E+02 -.14943690871E+02 -.17609093671E+02 -.19963777380E+02
 -.22087415702E+02 -.23430899742E+02 -.23875540376E+02 -.23417037806E+02 -.22066061050E+02
 -.19990140735E+02 -.17621194656E+02 -.14984295623E+02 -.12290019727E+02 -.98211562411E+01
 -.75986311512E+01 -.57235440518E+01 -.41293019814E+01 -.27807923061E+01 -.16162937157E+01
 -.63614107962E+00 0.13595022366E+00 0.67473109090E+00 0.99364500640E+00 0.11466632492E+01
 0.11964833268E+01 0.11350449848E+01 0.97161242697E+00 0.69935825130E+00 0.14236780290E+00
 -.59685686026E+00 -.16134837122E+01 -.28343943538E+01 -.41225897041E+01 -.58274898598E+01
 -.77738108586E+01 -.98717839307E+01 -.12229569834E+02 -.14597133189E+02 -.16788397095E+02
 -.18691098856E+02 -.19979274827E+02 -.20711636138E+02 -.20725251822E+02 -.19985051071E+02
 -.18631450020E+02 -.16811719393E+02 -.14566751966E+02 -.12215935279E+02 -.99338324871E+01
 -.77606180987E+01 -.58376542685E+01 -.41293019814E+01 -.26333072989E+01 -.12940346732E+01
 -.11148307661E+00 0.87479209611E+00 0.16193218677E+01 0.20984984992E+01 0.23629910279E+01
 0.24693020842E+01 0.24668584754E+01 0.23724083266E+01 0.21203423665E+01 0.15915325337E+01
 0.86960962719E+00 -.15431888314E+00 -.13057483415E+01 -.25789215574E+01 -.41440456053E+01
 -.61724748258E+01 -.80962087818E+01 -.10188740781E+02 -.12216001373E+02 -.14158016918E+02
 -.15944290073E+02 -.17330093674E+02 -.18310035061E+02 -.18614210971E+02 -.18284923777E+02
 -.17394289554E+02 -.15974426972E+02 -.14160880018E+02 -.12204258558E+02 -.10147500271E+02
 -.80876405723E+01 -.61755950728E+01 -.43935255552E+01 -.27807923061E+01 -.12940346732E+01
 0.58187736867E-01 0.12352365118E+01 0.21755944388E+01 0.28203753836E+01 0.31970689812E+01
 0.33687266138E+01 0.34210863396E+01 0.33726887758E+01 0.31867012280E+01 0.28041505389E+01
 0.22018420675E+01 0.12425929418E+01 0.10084639257E+00 -.12762506304E+01 -.28367202231E+01
 -.43807967483E+01 -.67469807115E+01 -.86145453571E+01 -.10466713480E+02 -.12358682993E+02
 -.14106858154E+02 -.15498394282E+02 -.16530363490E+02 -.16991016654E+02 -.17005169568E+02
 -.16491152760E+02 -.15455088648E+02 -.14056754793E+02 -.12402700226E+02 -.10529230041E+02
 -.86120364513E+01 -.67535930665E+01 -.49400082656E+01 -.32370173028E+01 -.16162937157E+01
 -.11148307661E+00 0.12352365118E+01 0.23500878392E+01 0.31332540077E+01 0.35693291576E+01
 0.37501568680E+01 0.38189231193E+01 0.38154687285E+01 0.37522195461E+01 0.35754636606E+01
 0.31520419286E+01 0.23199532673E+01 0.12283541792E+01 -.15580115602E+00 -.16418981022E+01
 -.31712184293E+01 -.49669937057E+01 -.75827459537E+01 -.94477793955E+01 -.11311032579E+02
 -.12970026525E+02 -.14387897232E+02 -.15571142683E+02 -.16304117851E+02 -.16636645435E+02
 -.16361661295E+02 -.15594660351E+02 -.14454017126E+02 -.12955220755E+02 -.11222907283E+02
 -.94266824782E+01 -.75982462788E+01 -.57620262770E+01 -.39971100849E+01 -.22723518065E+01
 -.63614107962E+00 0.87479209611E+00 0.21755944388E+01 0.31332540077E+01 0.36346966261E+01
 0.37522669024E+01 0.37563042342E+01 0.37521762053E+01 0.37580921139E+01 0.37533242929E+01
 0.36283967033E+01 0.31183340407E+01 0.22043274763E+01 0.88419552178E+00 -.59243954943E+00
 -.22443238806E+01 -.40605122334E+01 -.57378006039E+01 -.88359555393E+01 -.10692269630E+02
 -.12471086754E+02 -.14179306878E+02 -.15641005158E+02 -.16609079176E+02 -.17127496074E+02
 -.17040666604E+02 -.16551493488E+02 -.15594660351E+02 -.14189772923E+02 -.12541779845E+02
 -.10739365484E+02 -.88299324881E+01 -.69196540684E+01 -.50758872024E+01 -.32590537215E+01
 -.15159413915E+01 0.13595022366E+00 0.16193218677E+01 0.28203753836E+01 0.35693291576E+01
 0.37522669024E+01 0.36562835299E+01 0.35875426938E+01 0.35945775348E+01 0.36496794092E+01
 0.37572901932E+01 0.35716540329E+01 0.28370983669E+01 0.15864859180E+01 0.12703716684E+00
 -.15551028795E+01 -.32982188699E+01 -.49956297111E+01 -.69663371334E+01 -.10650128042E+02
 -.12817489400E+02 -.14856921322E+02 -.16544349690E+02 -.17809770520E+02 -.18706700600E+02
 -.19018795822E+02 -.18822906766E+02 -.17906782976E+02 -.16491152760E+02 -.14777134366E+02
 -.12776535110E+02 -.10659568303E+02 -.85655771939E+01 -.65407143554E+01 -.45729730453E+01
 -.27177937194E+01 -.95054093287E+00 0.67473109090E+00 0.20984984992E+01 0.31970689812E+01
 0.37501568680E+01 0.37563042342E+01 0.35875426938E+01 0.35370915484E+01 0.35840679877E+01
 0.37620354069E+01 0.37465566963E+01 0.31921248150E+01 0.20854708919E+01 0.70820113003E+00
 -.94493630468E+00 -.26740279944E+01 -.45350255007E+01 -.66167796633E+01 -.85233713691E+01
 -.13525160069E+02 -.15876929183E+02 -.18119166881E+02 -.20161305189E+02 -.21733883378E+02
 -.22467153529E+02 -.22429680148E+02 -.21528957455E+02 -.20167051896E+02 -.18284923777E+02
 -.15936333385E+02 -.13476452083E+02 -.10995362858E+02 -.85920755056E+01 -.63296617674E+01
 -.42745674758E+01 -.23580328496E+01 -.60316183122E+00 0.99364500640E+00 0.23629910279E+01
 0.33687266138E+01 0.38189231193E+01 0.37521762053E+01 0.35945775348E+01 0.35840679877E+01
 0.37615718061E+01 0.38082769952E+01 0.33758303826E+01 0.23644214516E+01 0.10069420739E+01
 -.63606408101E+00 -.23665784734E+01 -.43103379895E+01 -.63889006795E+01 -.84821655637E+01
 -.11053606671E+02 -.17592605627E+02 -.20946296184E+02 -.23833256944E+02 -.25835340659E+02
 -.26918738256E+02 -.27383375975E+02 -.27067554348E+02 -.25995305210E+02 -.23667730208E+02
 -.20725251822E+02 -.17698616401E+02 -.14523700127E+02 -.11505859838E+02 -.87353206890E+01
 -.62922126130E+01 -.40953337090E+01 -.21642634253E+01 -.40980341304E+00 0.11466632492E+01
 0.24693020842E+01 0.34210863396E+01 0.38154687285E+01 0.37580921139E+01 0.36496794092E+01
 0.37620354069E+01 0.38082769952E+01 0.34279980562E+01 0.24636126451E+01 0.11457085942E+01
 -.42739188437E+00 -.21227369448E+01 -.40993411414E+01 -.62396124437E+01 -.86899389299E+01
 -.11638238186E+02 -.14417644188E+02 -.23872460442E+02 -.26842353199E+02 -.29205745714E+02
 -.31282323375E+02 -.32672342128E+02 -.32528890752E+02 -.31156581875E+02 -.29130333973E+02
 -.27240977901E+02 -.23875540376E+02 -.19609778070E+02 -.15739853497E+02 -.12129968354E+02
 -.90224238747E+01 -.63037046810E+01 -.40602067414E+01 -.20725502438E+01 -.35039581583E+00
 0.11964833268E+01 0.24668584754E+01 0.33726887758E+01 0.37522195461E+01 0.37533242929E+01
 0.37572901932E+01 0.37465566963E+01 0.33758303826E+01 0.24636126451E+01 0.11967019137E+01
 -.33853760059E+00 -.20667323141E+01 -.40879540607E+01 -.63210139889E+01 -.90443436772E+01
 -.12209364040E+02 -.15547033278E+02 -.19871574062E+02 -.30029723866E+02 -.35574483588E+02
 -.42080099854E+02 -.47087090906E+02 -.48991539936E+02 -.47250308907E+02 -.42182002430E+02
 -.35391809495E+02 -.29629564553E+02 -.26467669131E+02 -.21791482080E+02 -.16856548558E+02
 -.12739734171E+02 -.92016712348E+01 -.63998224361E+01 -.40114105534E+01 -.20708868525E+01
 -.32487719294E+00 0.11350449848E+01 0.23724083266E+01 0.31867012280E+01 0.35754636606E+01
 0.36283967033E+01 0.35716540329E+01 0.31921248150E+01 0.23644214516E+01 0.11457085942E+01
 -.33853760059E+00 -.20677086390E+01 -.40373236391E+01 -.63387627716E+01 -.92308887493E+01
 -.12677988076E+02 -.16792470387E+02 -.22006325802E+02 -.26032677465E+02 -.46523610923E+02
 -.58895279103E+02 -.68072013264E+02 -.72735055916E+02 -.72587630841E+02 -.68010883216E+02
 -.58833940633E+02 -.47009426988E+02 -.34866964917E+02 -.27838138930E+02 -.23592245715E+02
 -.17699053624E+02 -.13223382071E+02 -.93367524962E+01 -.64470095086E+01 -.40039081089E+01
 -.21121540719E+01 -.39112385844E+00 0.97161242697E+00 0.21203423665E+01 0.28041505389E+01
 0.31520419286E+01 0.31183340407E+01 0.28370983669E+01 0.20854708919E+01 0.10069420739E+01
 -.42739188437E+00 -.20667323141E+01 -.40373236391E+01 -.63889397658E+01 -.94375058780E+01
 -.13121559214E+02 -.17900776220E+02 -.23482121554E+02 -.27846685395E+02 -.35070476121E+02
 -.74495536064E+02 -.85362806926E+02 -.90757807002E+02 -.92456856523E+02 -.90724565477E+02
 -.85431851349E+02 -.74283095811E+02 -.58448771363E+02 -.41346336217E+02 -.29576631490E+02
 -.24416343421E+02 -.18386114590E+02 -.13259834210E+02 -.93890462360E+01 -.63575112445E+01
 -.40613520337E+01 -.21358494770E+01 -.62139039156E+00 0.69935825130E+00 0.15915325337E+01
 0.22018420675E+01 0.23199532673E+01 0.22043274763E+01 0.15864859180E+01 0.70820113003E+00
 -.63606408101E+00 -.21227369448E+01 -.40879540607E+01 -.63387627716E+01 -.94375058780E+01
 -.13177326091E+02 -.18449253823E+02 -.24212772891E+02 -.29692826939E+02 -.41205431749E+02
 -.58478015383E+02 -.94634222292E+02 -.97412959412E+02 -.97123095055E+02 -.97156364942E+02
 -.97449742317E+02 -.94853789242E+02 -.85036633989E+02 -.67270421166E+02 -.46226133983E+02
 -.30809176605E+02 -.24634881611E+02 -.18388676200E+02 -.13119228489E+02 -.92649722765E+01
 -.63088690044E+01 -.41182318309E+01 -.23572049625E+01 -.96197992274E+00 0.14236780290E+00
 0.86960962719E+00 0.12425929418E+01 0.12283541792E+01 0.88419552178E+00 0.12703716684E+00
 -.94493630468E+00 -.23665784734E+01 -.40993411414E+01 -.63210139889E+01 -.92308887493E+01
 -.13121559214E+02 -.18449253823E+02 -.24607826001E+02 -.30932889740E+02 -.46157383688E+02
 -.67289408005E+02 -.84984004111E+02 -.93846793293E+02 -.86544694087E+02 -.82832239179E+02
 -.86565997850E+02 -.93701043989E+02 -.97418641976E+02 -.90158929141E+02 -.71639172643E+02
 -.47912798132E+02 -.30953685942E+02 -.24274532675E+02 -.17919518560E+02 -.12662693824E+02
 -.90260391740E+01 -.62432923624E+01 -.42983611634E+01 -.26734200834E+01 -.15483591107E+01
 -.59685686026E+00 -.15431888314E+00 0.10084639257E+00 -.15580115602E+00 -.59243954943E+00
 -.15551028795E+01 -.26740279944E+01 -.43103379895E+01 -.62396124437E+01 -.90443436772E+01
 -.12677988076E+02 -.17900776220E+02 -.24212772891E+02 -.30932889740E+02 -.47834720901E+02
 -.71787123780E+02 -.90199419672E+02 -.97459435662E+02 -.68135738730E+02 -.54112794706E+02
 -.54187212965E+02 -.68143959654E+02 -.86680243257E+02 -.97190688384E+02 -.91875938413E+02
 -.71769317339E+02 -.46078941193E+02 -.29677755877E+02 -.23458596111E+02 -.16796939741E+02
 -.12200557832E+02 -.87216771059E+01 -.63726706297E+01 -.45632287025E+01 -.32817205758E+01
 -.22732545490E+01 -.16134837122E+01 -.13057483415E+01 -.12762506304E+01 -.16418981022E+01
 -.22443238806E+01 -.32982188699E+01 -.45350255007E+01 -.63889006795E+01 -.86899389299E+01
 -.12209364040E+02 -.16792470387E+02 -.23482121554E+02 -.29692826939E+02 -.46157383688E+02
 -.71787123780E+02 -.91817479957E+02 -.97210322245E+02 -.86560850362E+02 -.25395636003E+02
 -.13360368483E+02 -.25375327974E+02 -.54361785728E+02 -.83041995743E+02 -.97162107510E+02
 -.90207926423E+02 -.67314320699E+02 -.41270036909E+02 -.27893351105E+02 -.21974406808E+02
 -.15585916287E+02 -.11619589835E+02 -.84766162135E+01 -.66005316710E+01 -.49972010351E+01
 -.40436302037E+01 -.31752801996E+01 -.28343943538E+01 -.25789215574E+01 -.28367202231E+01
 -.31712184293E+01 -.40605122334E+01 -.49956297111E+01 -.66167796633E+01 -.84821655637E+01
 -.11638238186E+02 -.15547033278E+02 -.22006325802E+02 -.27846685395E+02 -.41205431749E+02
 -.67289408005E+02 -.90199419672E+02 -.97210322245E+02 -.82926321460E+02 -.54376668728E+02
 0.15493779139E+02 0.15320336337E+02 -.13437220340E+02 -.54267672519E+02 -.86677519692E+02
 -.97352166313E+02 -.84987250822E+02 -.58490028903E+02 -.35056459120E+02 -.26062512931E+02
 -.19838424438E+02 -.14419082062E+02 -.11028368722E+02 -.85720683962E+01 -.69464511370E+01
 -.57733396567E+01 -.49546206445E+01 -.44059349842E+01 -.41225897041E+01 -.41440456053E+01
 -.43807967483E+01 -.49669937057E+01 -.57378006039E+01 -.69663371334E+01 -.85233713691E+01
 -.11053606671E+02 -.14417644188E+02 -.19871574062E+02 -.26032677465E+02 -.35070476121E+02
 -.58478015383E+02 -.84984004111E+02 -.97459435662E+02 -.86560850362E+02 -.54376668728E+02
 -.13320064935E+02 0.15486947932E+02 -.13235702765E+02 -.54214627546E+02 -.86427070277E+02
 -.97506844607E+02 -.85364988401E+02 -.58875959477E+02 -.35573252002E+02 -.26803560066E+02
 -.20960978084E+02 -.15837317241E+02 -.12805098840E+02 -.10689444673E+02 -.94937141843E+01
 -.86008641291E+01 -.81501583487E+01 -.77601563155E+01 -.76310540238E+01 -.75894237502E+01
 -.77738108586E+01 -.80962087818E+01 -.86145453571E+01 -.94477793955E+01 -.10692269630E+02
 -.12817489400E+02 -.15876929183E+02 -.20946296184E+02 -.26842353199E+02 -.35574483588E+02
 -.58895279103E+02 -.85362806926E+02 -.97412959412E+02 -.86544694087E+02 -.54112794706E+02
 -.13360368483E+02 0.15320336337E+02 -.13235702765E+02 -.45836236843E+02 -.78524320214E+02
 -.96517256576E+02 -.92369856568E+02 -.70372452145E+02 -.43719666177E+02 -.29705728144E+02
 -.24283650746E+02 -.18426786760E+02 -.15137053492E+02 -.12696221982E+02 -.11460903675E+02
 -.10618588853E+02 -.10350235997E+02 -.10008602739E+02 -.10026493002E+02 -.99038420923E+01
 -.10050671169E+02 -.10055723785E+02 -.10359401181E+02 -.10647966674E+02 -.11481458341E+02
 -.12679173178E+02 -.15081994308E+02 -.18448807187E+02 -.24228874234E+02 -.29707410358E+02
 -.43569107128E+02 -.70454276570E+02 -.92360385007E+02 -.96571012012E+02 -.78600419922E+02
 -.45730268426E+02 -.13260245227E+02 0.31302960553E+00 -.54214627546E+02 -.78524320214E+02
 -.95337226471E+02 -.94963350541E+02 -.77188930153E+02 -.50966627489E+02 -.32615826038E+02
 -.26591089846E+02 -.20866219462E+02 -.17072145752E+02 -.14624581325E+02 -.13364708984E+02
 -.12758873392E+02 -.12659592444E+02 -.12711149369E+02 -.12822217909E+02 -.12850885042E+02
 -.12839643780E+02 -.12745400301E+02 -.12674657237E+02 -.12629124494E+02 -.12773457301E+02
 -.13365733882E+02 -.14647533696E+02 -.17046011529E+02 -.20929009854E+02 -.26575232381E+02
 -.32663019927E+02 -.50954455207E+02 -.77176589803E+02 -.94991012238E+02 -.95177100011E+02
 -.78568197594E+02 -.54086976112E+02 -.36171630576E+02 -.36284570954E+02 -.86427070277E+02
 -.96517256576E+02 -.94963350541E+02 -.79488237311E+02 -.55056692741E+02 -.35207508650E+02
 -.28024917300E+02 -.22979726486E+02 -.18629560002E+02 -.16380467707E+02 -.15033720361E+02
 -.14921106128E+02 -.14887374450E+02 -.15363929296E+02 -.15696030407E+02 -.16109545055E+02
 -.16140353920E+02 -.16204553182E+02 -.15767093454E+02 -.15422412690E+02 -.14858002610E+02
 -.14837015543E+02 -.15027087478E+02 -.16438809514E+02 -.18606318772E+02 -.23008467415E+02
 -.27962163257E+02 -.35265542930E+02 -.55025304998E+02 -.79469693254E+02 -.95023149574E+02
 -.96385425913E+02 -.86496305864E+02 -.73977880390E+02 -.68211666449E+02 -.73846941080E+02
 -.97506844607E+02 -.92369856568E+02 -.77188930153E+02 -.55056692741E+02 -.36128270765E+02
 -.28762534734E+02 -.24157577068E+02 -.19874794451E+02 -.17623882300E+02 -.16555226895E+02
 -.16533553509E+02 -.16994697608E+02 -.17923541968E+02 -.18980689429E+02 -.19900624371E+02
 -.20380979458E+02 -.20298618335E+02 -.19771170790E+02 -.18921441093E+02 -.18049540826E+02
 -.17025143236E+02 -.16556292471E+02 -.16513530938E+02 -.17729151976E+02 -.19845093020E+02
 -.24222693984E+02 -.28746048436E+02 -.36173705641E+02 -.55175291553E+02 -.77149757369E+02
 -.92517274549E+02 -.97325142838E+02 -.95423503513E+02 -.91974588479E+02 -.91947853898E+02
 -.95450618208E+02 -.85364988401E+02 -.70372452145E+02 -.50966627489E+02 -.35207508650E+02
 -.28762534734E+02 -.24658386934E+02 -.20543536165E+02 -.18528125164E+02 -.17623882300E+02
 -.17880410972E+02 -.18725957149E+02 -.20587078250E+02 -.22227745544E+02 -.23649495504E+02
 -.24371191959E+02 -.24684087776E+02 -.24456890522E+02 -.23725163137E+02 -.22006894411E+02
 -.20428254919E+02 -.18841787456E+02 -.17931851120E+02 -.17560446348E+02 -.18565665583E+02
 -.20487917923E+02 -.24631960578E+02 -.28778923368E+02 -.35132866849E+02 -.51016342769E+02
 -.70217812184E+02 -.85459588604E+02 -.93566835273E+02 -.96565714085E+02 -.97004221827E+02
 -.96497552557E+02 -.93483305969E+02 -.58875959477E+02 -.43719666177E+02 -.32615826038E+02
 -.28024917300E+02 -.24157577068E+02 -.20543536165E+02 -.18719813509E+02 -.18230786591E+02
 -.18629560002E+02 -.20141186652E+02 -.22571276971E+02 -.24739676250E+02 -.26089992406E+02
 -.27161310696E+02 -.27664487744E+02 -.27733962340E+02 -.27133705091E+02 -.26465612138E+02
 -.24798889418E+02 -.22323002673E+02 -.20194946304E+02 -.18779365272E+02 -.18145012488E+02
 -.18809371304E+02 -.20542797603E+02 -.24128411353E+02 -.28169146554E+02 -.32435556584E+02
 -.43948675848E+02 -.58796203916E+02 -.72022409402E+02 -.80713932305E+02 -.84787185714E+02
 -.84804461480E+02 -.80778543912E+02 -.72294051420E+02 -.35573252002E+02 -.29705728144E+02
 -.26591089846E+02 -.22979726486E+02 -.19874794451E+02 -.18528125164E+02 -.18230786591E+02
 -.18983282195E+02 -.20866219462E+02 -.23902258879E+02 -.26146072317E+02 -.28013583684E+02
 -.29952339818E+02 -.31932054181E+02 -.32596487108E+02 -.31788663391E+02 -.29814381747E+02
 -.28034388363E+02 -.26528937039E+02 -.23614159335E+02 -.20903070317E+02 -.19053100136E+02
 -.18191167955E+02 -.18455676041E+02 -.20002536950E+02 -.22740974413E+02 -.26817892284E+02
 -.29540520273E+02 -.35318924651E+02 -.45235012647E+02 -.54257814445E+02 -.60595398070E+02
 -.62673625402E+02 -.60493624065E+02 -.54116661587E+02 -.44860086956E+02 -.26803560066E+02
 -.24283650746E+02 -.20866219462E+02 -.18629560002E+02 -.17623882300E+02 -.17623882300E+02
 -.18629560002E+02 -.20866219462E+02 -.24283650746E+02 -.26803560066E+02 -.29419451928E+02
 -.33032844339E+02 -.37120300161E+02 -.39613426819E+02 -.39581855641E+02 -.37007839821E+02
 -.32799286358E+02 -.29171257517E+02 -.27275128076E+02 -.24085313015E+02 -.20888144641E+02
 -.18760052348E+02 -.17632932090E+02 -.17632932090E+02 -.18760052348E+02 -.20888144641E+02
 -.24085313015E+02 -.27275128076E+02 -.29171257517E+02 -.32799286358E+02 -.37007839821E+02
 -.39581855641E+02 -.39613426819E+02 -.37120300161E+02 -.33032844339E+02 -.29419451928E+02
 -.20960978084E+02 -.18426786760E+02 -.17072145752E+02 -.16380467707E+02 -.16555226895E+02
 -.17880410972E+02 -.20141186652E+02 -.23902258879E+02 -.26803560066E+02 -.30038666437E+02