 running on   16 total cores
 distrk:  each k-point on   16 cores,    1 groups
 distr:  one band on    4 cores,    4 groups
 using from now: INCAR     
 vasp.5.3.3 18Dez12 (build Jun 24 2015 15:58:02) complex                        
  
 POSCAR found type information on POSCAR  C 
 POSCAR found :  1 types and       2 ions
 scaLAPACK will be used

 ----------------------------------------------------------------------------- 
|                                                                             |
|           W    W    AA    RRRRR   N    N  II  N    N   GGGG   !!!           |
|           W    W   A  A   R    R  NN   N  II  NN   N  G    G  !!!           |
|           W    W  A    A  R    R  N N  N  II  N N  N  G       !!!           |
|           W WW W  AAAAAA  RRRRR   N  N N  II  N  N N  G  GGG   !            |
|           WW  WW  A    A  R   R   N   NN  II  N   NN  G    G                |
|           W    W  A    A  R    R  N    N  II  N    N   GGGG   !!!           |
|                                                                             |
|      For LVTOT=.TRUE. VASP.5.x writes the TOTAL local potential to          |
|      the file LOCPOT. If you want the Hartree contributions only, use       |
|      LVHAR=.TRUE. instead.                                                  |
|                                                                             |
 ----------------------------------------------------------------------------- 

 LDA part: xc-table for Pade appr. of Perdew
 WARNING: stress and forces are not correct
 POSCAR, INCAR and KPOINTS ok, starting setup
 WARNING: small aliasing (wrap around) errors must be expected
 FFT: planning ...
 WAVECAR not read
 charge-density read from file: Carbon                                  
 magnetization density read from file 1
 entering main loop
       N       E                     dE             d eps       ncg     rms          rms(c)
DAV:   1     0.137442306008E+02    0.13744E+02   -0.36610E+03 14632   0.585E+02
DAV:   2    -0.141602256586E+02   -0.27904E+02   -0.25307E+02 19560   0.148E+02
DAV:   3    -0.151034517830E+02   -0.94323E+00   -0.92884E+00 16540   0.218E+01
DAV:   4    -0.151053072136E+02   -0.18554E-02   -0.18552E-02 15960   0.999E-01
DAV:   5    -0.151053096942E+02   -0.24806E-05   -0.24806E-05 15728   0.352E-02
DAV:   6    -0.151053097093E+02   -0.15109E-07   -0.15112E-07 12900   0.291E-03
   1 F= -.15105310E+02 E0= -.15105310E+02  d E =-.292239E-13  mag=    -0.0004
 writing wavefunctions
