 vasp.5.3.3 18Dez12 (build Jun 24 2015 15:58:02) complex                        
  
 executed on             LinuxIFC date 2023.04.23  19:45:47
 running on   32 total cores
 distrk:  each k-point on   32 cores,    1 groups
 distr:  one band on NCORES_PER_BAND=   1 cores,   32 groups


--------------------------------------------------------------------------------------------------------


 INCAR:
 POTCAR:    PAW_PBE C_h 06Feb2004                 

 ----------------------------------------------------------------------------- 
|                                                                             |
|           W    W    AA    RRRRR   N    N  II  N    N   GGGG   !!!           |
|           W    W   A  A   R    R  NN   N  II  NN   N  G    G  !!!           |
|           W    W  A    A  R    R  N N  N  II  N N  N  G       !!!           |
|           W WW W  AAAAAA  RRRRR   N  N N  II  N  N N  G  GGG   !            |
|           WW  WW  A    A  R   R   N   NN  II  N   NN  G    G                |
|           W    W  A    A  R    R  N    N  II  N    N   GGGG   !!!           |
|                                                                             |
|      For optimal performance we recommend that you set                      |
|        NPAR = 4 - approx SQRT( number of cores)                             |
|      (number of cores/NPAR must be integer)                                 |
|      This setting will greatly improve the performance of VASP for DFT.     |
|      The default NPAR=number of cores might be grossly inefficient          |
|      on modern multi-core architectures or massively parallel machines.     |
|      Do your own testing.                                                   |
|      Unfortunately you need to use the default for hybrid, GW and RPA       |
|      calculations.                                                          |
|                                                                             |
 ----------------------------------------------------------------------------- 

 POTCAR:    PAW_PBE C_h 06Feb2004                 
   VRHFIN =C: s2p2                                                              
   LEXCH  = PE                                                                  
   EATOM  =   147.1560 eV,   10.8157 Ry                                         
                                                                                
   TITEL  = PAW_PBE C_h 06Feb2004                                               
   LULTRA =        F    use ultrasoft PP ?                                      
   IUNSCR =        1    unscreen: 0-lin 1-nonlin 2-no                           
   RPACOR =    0.800    partial core radius                                     
   POMASS =   12.011; ZVAL   =    4.000    mass and valenz                      
   RCORE  =    1.100    outmost cutoff radius                                   
   RWIGS  =    1.630; RWIGS  =    0.863    wigner-seitz radius (au A)           
   ENMAX  =  700.000; ENMIN  =  500.000 eV                                      
   ICORE  =        2    local potential                                         
   LCOR   =        T    correct aug charges                                     
   LPAW   =        T    paw PP                                                  
   EAUG   =  946.768                                                            
   DEXC   =    0.000                                                            
   RMAX   =    1.128    core radius for proj-oper                               
   RAUG   =    1.300    factor for augmentation sphere                          
   RDEP   =    1.162    radius for radial grids                                 
   RDEPT  =    1.088    core radius for aug-charge                              
                                                                                
   Atomic configuration                                                         
    4 entries                                                                   
     n  l   j            E        occ.                                          
     1  0  0.50      -273.3789   2.0000                                         
     2  0  0.50       -13.7508   2.0000                                         
     2  1  0.50        -5.2854   2.0000                                         
     3  2  1.50        -5.4423   0.0000                                         
   Description                                                                  
     l       E           TYP  RCUT    TYP  RCUT                                 
     0    -13.7508458     23  1.100                                             
     0     -8.2022199     23  1.100                                             
     1     -5.2854383     23  1.100                                             
     1      1.1560700     23  1.100                                             
     2     -5.4423304      7  1.100                                             
  local pseudopotential read in
  partial core-charges read in
  partial kinetic energy density read in
  atomic valenz-charges read in
  non local Contribution for L=           0  read in
    real space projection operators read in
  non local Contribution for L=           0  read in
    real space projection operators read in
  non local Contribution for L=           1  read in
    real space projection operators read in
  non local Contribution for L=           1  read in
    real space projection operators read in
    PAW grid and wavefunctions read in
 
   number of l-projection  operators is LMAX  =           4
   number of lm-projection operators is LMMAX =           8
 
  PAW_PBE C_h 06Feb2004                 :
 energy of atom  1       EATOM= -147.1560
 kinetic energy error for atom=    0.2586 (will be added to EATOM!!)
 
 
 POSCAR: Carbon diamond cubic                    
  positions in direct lattice
  No initial velocities read in
 exchange correlation table for  LEXCH =        8
   RHO(1)=    0.500       N(1)  =     2000
   RHO(2)=  100.500       N(2)  =     4000
 


--------------------------------------------------------------------------------------------------------


 ion  position               nearest neighbor table
   1  0.000  0.000  0.000-   2 1.55   2 1.55   2 1.55   2 1.55
   2  0.250  0.250  0.250-   1 1.55   1 1.55   1 1.55   1 1.55
 
  LATTYP: Found a face centered cubic cell.
 ALAT       =     3.5700000000
  
  Lattice vectors:
  
 A1 = (   0.0000000000,   1.7850000000,   1.7850000000)
 A2 = (   1.7850000000,   0.0000000000,   1.7850000000)
 A3 = (   1.7850000000,   1.7850000000,   0.0000000000)


Analysis of symmetry for initial positions (statically):
=====================================================================
 Subroutine PRICEL returns:
 Original cell was already a primitive cell.
 

 Routine SETGRP: Setting up the symmetry group for a 
 face centered cubic supercell.


 Subroutine GETGRP returns: Found 48 space group operations
 (whereof 24 operations were pure point group operations)
 out of a pool of 48 trial point group operations.


The static configuration has the point symmetry T_d .
 The point group associated with its full space group is O_h .


Analysis of symmetry for dynamics (positions and initial velocities):
=====================================================================
 Subroutine PRICEL returns:
 Original cell was already a primitive cell.
 

 Routine SETGRP: Setting up the symmetry group for a 
 face centered cubic supercell.


 Subroutine GETGRP returns: Found 48 space group operations
 (whereof 24 operations were pure point group operations)
 out of a pool of 48 trial point group operations.


The dynamic configuration has the point symmetry T_d .
 The point group associated with its full space group is O_h .


Analysis of magnetic symmetry:
=====================================================================

 Subroutine MAGSYM returns: Found 48 space group operations
 (whereof 24 operations were pure point group operations)
 out of a pool of 48 trial space group operations
 (whereof 24 operations were pure point group operations)
 and found also     1 'primitive' translations


The magnetic configuration has the point symmetry T_d .
 The point group associated with its full space group is O_h .


 irot  :   1
 --------------------------------------------------------------------
 isymop:   1   0   0
           0   1   0
           0   0   1

 gtrans:     0.0000000     0.0000000     0.0000000

 ptrans:     0.0000000     0.0000000     0.0000000
 rotmap:
 (   1->   1)  (   2->   2) 


 irot  :   2
 --------------------------------------------------------------------
 isymop:   0   0   1
           1   0   0
           0   1   0

 gtrans:     0.0000000     0.0000000     0.0000000

 ptrans:     0.0000000     0.0000000     0.0000000
 rotmap:
 (   1->   1)  (   2->   2) 


 irot  :   3
 --------------------------------------------------------------------
 isymop:   0   1   0
           0   0   1
           1   0   0

 gtrans:     0.0000000     0.0000000     0.0000000

 ptrans:     0.0000000     0.0000000     0.0000000
 rotmap:
 (   1->   1)  (   2->   2) 


 irot  :   4
 --------------------------------------------------------------------
 isymop:  -1  -1  -1
           0   0   1
           1   0   0

 gtrans:     0.0000000     0.0000000     0.0000000

 ptrans:     0.0000000     0.0000000     0.0000000
 rotmap:
 (   1->   1)  (   2->   2) 


 irot  :   5
 --------------------------------------------------------------------
 isymop:  -1  -1  -1
           0   1   0
           0   0   1

 gtrans:     0.0000000     0.0000000     0.0000000

 ptrans:     0.0000000     0.0000000     0.0000000
 rotmap:
 (   1->   1)  (   2->   2) 


 irot  :   6
 --------------------------------------------------------------------
 isymop:  -1  -1  -1
           1   0   0
           0   1   0

 gtrans:     0.0000000     0.0000000     0.0000000

 ptrans:     0.0000000     0.0000000     0.0000000
 rotmap:
 (   1->   1)  (   2->   2) 


 irot  :   7
 --------------------------------------------------------------------
 isymop:   0   1   0
           1   0   0
          -1  -1  -1

 gtrans:     0.0000000     0.0000000     0.0000000

 ptrans:     0.0000000     0.0000000     0.0000000
 rotmap:
 (   1->   1)  (   2->   2) 


 irot  :   8
 --------------------------------------------------------------------
 isymop:   1   0   0
           0   0   1
          -1  -1  -1

 gtrans:     0.0000000     0.0000000     0.0000000

 ptrans:     0.0000000     0.0000000     0.0000000
 rotmap:
 (   1->   1)  (   2->   2) 


 irot  :   9
 --------------------------------------------------------------------
 isymop:   0   0   1
           0   1   0
          -1  -1  -1

 gtrans:     0.0000000     0.0000000     0.0000000

 ptrans:     0.0000000     0.0000000     0.0000000
 rotmap:
 (   1->   1)  (   2->   2) 


 irot  :  10
 --------------------------------------------------------------------
 isymop:   0   0   1
          -1  -1  -1
           0   1   0

 gtrans:     0.0000000     0.0000000     0.0000000

 ptrans:     0.0000000     0.0000000     0.0000000
 rotmap:
 (   1->   1)  (   2->   2) 


 irot  :  11
 --------------------------------------------------------------------
 isymop:   0   1   0
          -1  -1  -1
           1   0   0

 gtrans:     0.0000000     0.0000000     0.0000000

 ptrans:     0.0000000     0.0000000     0.0000000
 rotmap:
 (   1->   1)  (   2->   2) 


 irot  :  12
 --------------------------------------------------------------------
 isymop:   1   0   0
          -1  -1  -1
           0   0   1

 gtrans:     0.0000000     0.0000000     0.0000000

 ptrans:     0.0000000     0.0000000     0.0000000
 rotmap:
 (   1->   1)  (   2->   2) 


 irot  :  13
 --------------------------------------------------------------------
 isymop:  -1  -1  -1
           0   1   0
           1   0   0

 gtrans:     0.0000000     0.0000000     0.0000000

 ptrans:     0.0000000     0.0000000     0.0000000
 rotmap:
 (   1->   1)  (   2->   2) 


 irot  :  14
 --------------------------------------------------------------------
 isymop:  -1  -1  -1
           1   0   0
           0   0   1

 gtrans:     0.0000000     0.0000000     0.0000000

 ptrans:     0.0000000     0.0000000     0.0000000
 rotmap:
 (   1->   1)  (   2->   2) 


 irot  :  15
 --------------------------------------------------------------------
 isymop:  -1  -1  -1
           0   0   1
           0   1   0

 gtrans:     0.0000000     0.0000000     0.0000000

 ptrans:     0.0000000     0.0000000     0.0000000
 rotmap:
 (   1->   1)  (   2->   2) 


 irot  :  16
 --------------------------------------------------------------------
 isymop:   0   1   0
           0   0   1
          -1  -1  -1

 gtrans:     0.0000000     0.0000000     0.0000000

 ptrans:     0.0000000     0.0000000     0.0000000
 rotmap:
 (   1->   1)  (   2->   2) 


 irot  :  17
 --------------------------------------------------------------------
 isymop:   1   0   0
           0   1   0
          -1  -1  -1

 gtrans:     0.0000000     0.0000000     0.0000000

 ptrans:     0.0000000     0.0000000     0.0000000
 rotmap:
 (   1->   1)  (   2->   2) 


 irot  :  18
 --------------------------------------------------------------------
 isymop:   0   0   1
           1   0   0
          -1  -1  -1

 gtrans:     0.0000000     0.0000000     0.0000000

 ptrans:     0.0000000     0.0000000     0.0000000
 rotmap:
 (   1->   1)  (   2->   2) 


 irot  :  19
 --------------------------------------------------------------------
 isymop:   1   0   0
          -1  -1  -1
           0   1   0

 gtrans:     0.0000000     0.0000000     0.0000000

 ptrans:     0.0000000     0.0000000     0.0000000
 rotmap:
 (   1->   1)  (   2->   2) 


 irot  :  20
 --------------------------------------------------------------------
 isymop:   0   0   1
          -1  -1  -1
           1   0   0

 gtrans:     0.0000000     0.0000000     0.0000000

 ptrans:     0.0000000     0.0000000     0.0000000
 rotmap:
 (   1->   1)  (   2->   2) 


 irot  :  21
 --------------------------------------------------------------------
 isymop:   0   1   0
          -1  -1  -1
           0   0   1

 gtrans:     0.0000000     0.0000000     0.0000000

 ptrans:     0.0000000     0.0000000     0.0000000
 rotmap:
 (   1->   1)  (   2->   2) 


 irot  :  22
 --------------------------------------------------------------------
 isymop:   1   0   0
           0   0   1
           0   1   0

 gtrans:     0.0000000     0.0000000     0.0000000

 ptrans:     0.0000000     0.0000000     0.0000000
 rotmap:
 (   1->   1)  (   2->   2) 


 irot  :  23
 --------------------------------------------------------------------
 isymop:   0   1   0
           1   0   0
           0   0   1

 gtrans:     0.0000000     0.0000000     0.0000000

 ptrans:     0.0000000     0.0000000     0.0000000
 rotmap:
 (   1->   1)  (   2->   2) 


 irot  :  24
 --------------------------------------------------------------------
 isymop:   0   0   1
           0   1   0
           1   0   0

 gtrans:     0.0000000     0.0000000     0.0000000

 ptrans:     0.0000000     0.0000000     0.0000000
 rotmap:
 (   1->   1)  (   2->   2) 


 irot  :  25
 --------------------------------------------------------------------
 isymop:  -1   0   0
           0  -1   0
           0   0  -1

 gtrans:     0.2500000     0.2500000     0.2500000

 ptrans:     0.0000000     0.0000000     0.0000000
 rotmap:
 (   1->   2)  (   2->   1) 


 irot  :  26
 --------------------------------------------------------------------
 isymop:   0   0  -1
          -1   0   0
           0  -1   0

 gtrans:     0.2500000     0.2500000     0.2500000

 ptrans:     0.0000000     0.0000000     0.0000000
 rotmap:
 (   1->   2)  (   2->   1) 


 irot  :  27
 --------------------------------------------------------------------
 isymop:   0  -1   0
           0   0  -1
          -1   0   0

 gtrans:     0.2500000     0.2500000     0.2500000

 ptrans:     0.0000000     0.0000000     0.0000000
 rotmap:
 (   1->   2)  (   2->   1) 


 irot  :  28
 --------------------------------------------------------------------
 isymop:   1   1   1
           0   0  -1
          -1   0   0

 gtrans:     0.2500000     0.2500000     0.2500000

 ptrans:     0.0000000     0.0000000     0.0000000
 rotmap:
 (   1->   2)  (   2->   1) 


 irot  :  29
 --------------------------------------------------------------------
 isymop:   1   1   1
           0  -1   0
           0   0  -1

 gtrans:     0.2500000     0.2500000     0.2500000

 ptrans:     0.0000000     0.0000000     0.0000000
 rotmap:
 (   1->   2)  (   2->   1) 


 irot  :  30
 --------------------------------------------------------------------
 isymop:   1   1   1
          -1   0   0
           0  -1   0

 gtrans:     0.2500000     0.2500000     0.2500000

 ptrans:     0.0000000     0.0000000     0.0000000
 rotmap:
 (   1->   2)  (   2->   1) 


 irot  :  31
 --------------------------------------------------------------------
 isymop:   0  -1   0
          -1   0   0
           1   1   1

 gtrans:     0.2500000     0.2500000     0.2500000

 ptrans:     0.0000000     0.0000000     0.0000000
 rotmap:
 (   1->   2)  (   2->   1) 


 irot  :  32
 --------------------------------------------------------------------
 isymop:  -1   0   0
           0   0  -1
           1   1   1

 gtrans:     0.2500000     0.2500000     0.2500000

 ptrans:     0.0000000     0.0000000     0.0000000
 rotmap:
 (   1->   2)  (   2->   1) 


 irot  :  33
 --------------------------------------------------------------------
 isymop:   0   0  -1
           0  -1   0
           1   1   1

 gtrans:     0.2500000     0.2500000     0.2500000

 ptrans:     0.0000000     0.0000000     0.0000000
 rotmap:
 (   1->   2)  (   2->   1) 


 irot  :  34
 --------------------------------------------------------------------
 isymop:   0   0  -1
           1   1   1
           0  -1   0

 gtrans:     0.2500000     0.2500000     0.2500000

 ptrans:     0.0000000     0.0000000     0.0000000
 rotmap:
 (   1->   2)  (   2->   1) 


 irot  :  35
 --------------------------------------------------------------------
 isymop:   0  -1   0
           1   1   1
          -1   0   0

 gtrans:     0.2500000     0.2500000     0.2500000

 ptrans:     0.0000000     0.0000000     0.0000000
 rotmap:
 (   1->   2)  (   2->   1) 


 irot  :  36
 --------------------------------------------------------------------
 isymop:  -1   0   0
           1   1   1
           0   0  -1

 gtrans:     0.2500000     0.2500000     0.2500000

 ptrans:     0.0000000     0.0000000     0.0000000
 rotmap:
 (   1->   2)  (   2->   1) 


 irot  :  37
 --------------------------------------------------------------------
 isymop:   1   1   1
           0  -1   0
          -1   0   0

 gtrans:     0.2500000     0.2500000     0.2500000

 ptrans:     0.0000000     0.0000000     0.0000000
 rotmap:
 (   1->   2)  (   2->   1) 


 irot  :  38
 --------------------------------------------------------------------
 isymop:   1   1   1
          -1   0   0
           0   0  -1

 gtrans:     0.2500000     0.2500000     0.2500000

 ptrans:     0.0000000     0.0000000     0.0000000
 rotmap:
 (   1->   2)  (   2->   1) 


 irot  :  39
 --------------------------------------------------------------------
 isymop:   1   1   1
           0   0  -1
           0  -1   0

 gtrans:     0.2500000     0.2500000     0.2500000

 ptrans:     0.0000000     0.0000000     0.0000000
 rotmap:
 (   1->   2)  (   2->   1) 


 irot  :  40
 --------------------------------------------------------------------
 isymop:   0  -1   0
           0   0  -1
           1   1   1

 gtrans:     0.2500000     0.2500000     0.2500000

 ptrans:     0.0000000     0.0000000     0.0000000
 rotmap:
 (   1->   2)  (   2->   1) 


 irot  :  41
 --------------------------------------------------------------------
 isymop:  -1   0   0
           0  -1   0
           1   1   1

 gtrans:     0.2500000     0.2500000     0.2500000

 ptrans:     0.0000000     0.0000000     0.0000000
 rotmap:
 (   1->   2)  (   2->   1) 


 irot  :  42
 --------------------------------------------------------------------
 isymop:   0   0  -1
          -1   0   0
           1   1   1

 gtrans:     0.2500000     0.2500000     0.2500000

 ptrans:     0.0000000     0.0000000     0.0000000
 rotmap:
 (   1->   2)  (   2->   1) 


 irot  :  43
 --------------------------------------------------------------------
 isymop:  -1   0   0
           1   1   1
           0  -1   0

 gtrans:     0.2500000     0.2500000     0.2500000

 ptrans:     0.0000000     0.0000000     0.0000000
 rotmap:
 (   1->   2)  (   2->   1) 


 irot  :  44
 --------------------------------------------------------------------
 isymop:   0   0  -1
           1   1   1
          -1   0   0

 gtrans:     0.2500000     0.2500000     0.2500000

 ptrans:     0.0000000     0.0000000     0.0000000
 rotmap:
 (   1->   2)  (   2->   1) 


 irot  :  45
 --------------------------------------------------------------------
 isymop:   0  -1   0
           1   1   1
           0   0  -1

 gtrans:     0.2500000     0.2500000     0.2500000

 ptrans:     0.0000000     0.0000000     0.0000000
 rotmap:
 (   1->   2)  (   2->   1) 


 irot  :  46
 --------------------------------------------------------------------
 isymop:  -1   0   0
           0   0  -1
           0  -1   0

 gtrans:     0.2500000     0.2500000     0.2500000

 ptrans:     0.0000000     0.0000000     0.0000000
 rotmap:
 (   1->   2)  (   2->   1) 


 irot  :  47
 --------------------------------------------------------------------
 isymop:   0  -1   0
          -1   0   0
           0   0  -1

 gtrans:     0.2500000     0.2500000     0.2500000

 ptrans:     0.0000000     0.0000000     0.0000000
 rotmap:
 (   1->   2)  (   2->   1) 


 irot  :  48
 --------------------------------------------------------------------
 isymop:   0   0  -1
           0  -1   0
          -1   0   0

 gtrans:     0.2500000     0.2500000     0.2500000

 ptrans:     0.0000000     0.0000000     0.0000000
 rotmap:
 (   1->   2)  (   2->   1) 
 
 
 KPOINTS: Automatic mesh                          

Automatic generation of k-mesh.
Space group operators:
 irot       det(A)        alpha          n_x          n_y          n_z        tau_x        tau_y        tau_z
    1     1.000000     0.000000     1.000000     0.000000     0.000000     0.000000     0.000000     0.000000
    2     1.000000   120.000000    -0.577350    -0.577350    -0.577350     0.000000     0.000000     0.000000
    3     1.000000   120.000000     0.577350     0.577350     0.577350     0.000000     0.000000     0.000000
    4    -1.000000    90.000000     0.000000     0.000000    -1.000000     0.000000     0.000000     0.000000
    5    -1.000000   180.000000     0.000000     0.707107     0.707107     0.000000     0.000000     0.000000
    6    -1.000000    90.000000     0.000000     1.000000     0.000000     0.000000     0.000000     0.000000
    7     1.000000   180.000000     0.000000     0.000000     1.000000     0.000000     0.000000     0.000000
    8     1.000000   120.000000    -0.577350     0.577350     0.577350     0.000000     0.000000     0.000000
    9     1.000000   120.000000    -0.577350     0.577350    -0.577350     0.000000     0.000000     0.000000
   10    -1.000000    90.000000     0.000000     0.000000     1.000000     0.000000     0.000000     0.000000
   11    -1.000000    90.000000    -1.000000     0.000000     0.000000     0.000000     0.000000     0.000000
   12    -1.000000   180.000000     0.707107     0.000000     0.707107     0.000000     0.000000     0.000000
   13     1.000000   120.000000     0.577350    -0.577350     0.577350     0.000000     0.000000     0.000000
   14     1.000000   120.000000    -0.577350    -0.577350     0.577350     0.000000     0.000000     0.000000
   15     1.000000   180.000000     1.000000     0.000000     0.000000     0.000000     0.000000     0.000000
   16    -1.000000    90.000000     0.000000    -1.000000     0.000000     0.000000     0.000000     0.000000
   17    -1.000000   180.000000     0.707107     0.707107     0.000000     0.000000     0.000000     0.000000
   18    -1.000000    90.000000     1.000000     0.000000     0.000000     0.000000     0.000000     0.000000
   19     1.000000   120.000000     0.577350    -0.577350    -0.577350     0.000000     0.000000     0.000000
   20     1.000000   180.000000     0.000000     1.000000     0.000000     0.000000     0.000000     0.000000
   21     1.000000   120.000000     0.577350     0.577350    -0.577350     0.000000     0.000000     0.000000
   22    -1.000000   180.000000     0.000000    -0.707107     0.707107     0.000000     0.000000     0.000000
   23    -1.000000   180.000000     0.707107    -0.707107     0.000000     0.000000     0.000000     0.000000
   24    -1.000000   180.000000     0.707107     0.000000    -0.707107     0.000000     0.000000     0.000000
   25    -1.000000     0.000000     1.000000     0.000000     0.000000     0.250000     0.250000     0.250000
   26    -1.000000   120.000000    -0.577350    -0.577350    -0.577350     0.250000     0.250000     0.250000
   27    -1.000000   120.000000     0.577350     0.577350     0.577350     0.250000     0.250000     0.250000
   28     1.000000    90.000000     0.000000     0.000000    -1.000000     0.250000     0.250000     0.250000
   29     1.000000   180.000000     0.000000     0.707107     0.707107     0.250000     0.250000     0.250000
   30     1.000000    90.000000     0.000000     1.000000     0.000000     0.250000     0.250000     0.250000
   31    -1.000000   180.000000     0.000000     0.000000     1.000000     0.250000     0.250000     0.250000
   32    -1.000000   120.000000    -0.577350     0.577350     0.577350     0.250000     0.250000     0.250000
   33    -1.000000   120.000000    -0.577350     0.577350    -0.577350     0.250000     0.250000     0.250000
   34     1.000000    90.000000     0.000000     0.000000     1.000000     0.250000     0.250000     0.250000
   35     1.000000    90.000000    -1.000000     0.000000     0.000000     0.250000     0.250000     0.250000
   36     1.000000   180.000000     0.707107     0.000000     0.707107     0.250000     0.250000     0.250000
   37    -1.000000   120.000000     0.577350    -0.577350     0.577350     0.250000     0.250000     0.250000
   38    -1.000000   120.000000    -0.577350    -0.577350     0.577350     0.250000     0.250000     0.250000
   39    -1.000000   180.000000     1.000000     0.000000     0.000000     0.250000     0.250000     0.250000
   40     1.000000    90.000000     0.000000    -1.000000     0.000000     0.250000     0.250000     0.250000
   41     1.000000   180.000000     0.707107     0.707107     0.000000     0.250000     0.250000     0.250000
   42     1.000000    90.000000     1.000000     0.000000     0.000000     0.250000     0.250000     0.250000
   43    -1.000000   120.000000     0.577350    -0.577350    -0.577350     0.250000     0.250000     0.250000
   44    -1.000000   180.000000     0.000000     1.000000     0.000000     0.250000     0.250000     0.250000
   45    -1.000000   120.000000     0.577350     0.577350    -0.577350     0.250000     0.250000     0.250000
   46     1.000000   180.000000     0.000000    -0.707107     0.707107     0.250000     0.250000     0.250000
   47     1.000000   180.000000     0.707107    -0.707107     0.000000     0.250000     0.250000     0.250000
   48     1.000000   180.000000     0.707107     0.000000    -0.707107     0.250000     0.250000     0.250000
 
 Subroutine IBZKPT returns following result:
 ===========================================
 
 Found     29 irreducible k-points:
 
 Following reciprocal coordinates:
            Coordinates               Weight
  0.000000  0.000000  0.000000      1.000000
  0.125000  0.000000  0.000000      8.000000
  0.250000  0.000000  0.000000      8.000000
  0.375000  0.000000  0.000000      8.000000
  0.500000  0.000000  0.000000      4.000000
  0.125000  0.125000  0.000000      6.000000
  0.250000  0.125000  0.000000     24.000000
  0.375000  0.125000  0.000000     24.000000
  0.500000  0.125000  0.000000     24.000000
 -0.375000  0.125000  0.000000     24.000000
 -0.250000  0.125000  0.000000     24.000000
 -0.125000  0.125000  0.000000     12.000000
  0.250000  0.250000  0.000000      6.000000
  0.375000  0.250000  0.000000     24.000000
  0.500000  0.250000  0.000000     24.000000
 -0.375000  0.250000  0.000000     24.000000
 -0.250000  0.250000  0.000000     12.000000
  0.375000  0.375000  0.000000      6.000000
  0.500000  0.375000  0.000000     24.000000
 -0.375000  0.375000  0.000000     12.000000
  0.500000  0.500000  0.000000      3.000000
  0.375000  0.250000  0.125000     24.000000
  0.500000  0.250000  0.125000     48.000000
 -0.375000  0.250000  0.125000     24.000000
  0.500000  0.375000  0.125000     24.000000
 -0.375000  0.375000  0.125000     48.000000
 -0.250000  0.375000  0.125000     24.000000
 -0.375000  0.500000  0.125000     12.000000
 -0.250000  0.500000  0.250000      6.000000
 
 Following cartesian coordinates:
            Coordinates               Weight
  0.000000  0.000000  0.000000      1.000000
 -0.125000  0.125000  0.125000      8.000000
 -0.250000  0.250000  0.250000      8.000000
 -0.375000  0.375000  0.375000      8.000000
 -0.500000  0.500000  0.500000      4.000000
  0.000000  0.000000  0.250000      6.000000
 -0.125000  0.125000  0.375000     24.000000
 -0.250000  0.250000  0.500000     24.000000
 -0.375000  0.375000  0.625000     24.000000
  0.500000 -0.500000 -0.250000     24.000000
  0.375000 -0.375000 -0.125000     24.000000
  0.250000 -0.250000  0.000000     12.000000
  0.000000  0.000000  0.500000      6.000000
 -0.125000  0.125000  0.625000     24.000000
 -0.250000  0.250000  0.750000     24.000000
  0.625000 -0.625000 -0.125000     24.000000
  0.500000 -0.500000  0.000000     12.000000
  0.000000  0.000000  0.750000      6.000000
 -0.125000  0.125000  0.875000     24.000000
  0.750000 -0.750000  0.000000     12.000000
  0.000000  0.000000  1.000000      3.000000
  0.000000  0.250000  0.500000     24.000000
 -0.125000  0.375000  0.625000     48.000000
  0.750000 -0.500000 -0.250000     24.000000
 -0.000000  0.250000  0.750000     24.000000
  0.875000 -0.625000 -0.125000     48.000000
  0.750000 -0.500000  0.000000     24.000000
  1.000000 -0.750000  0.000000     12.000000
  1.000000 -0.500000  0.000000      6.000000
 
 TETIRR: Found     76 inequivalent tetrahedra from     3072


--------------------------------------------------------------------------------------------------------




 Dimension of arrays:
   k-points           NKPTS =     29   k-points in BZ     NKDIM =     29   number of bands    NBANDS=     32
   number of dos      NEDOS =    301   number of ions     NIONS =      2
   non local maximal  LDIM  =      4   non local SUM 2l+1 LMDIM =      8
   total plane-waves  NPLWV =   5832
   max r-space proj   IRMAX =      1   max aug-charges    IRDMAX=   3600
   dimension x,y,z NGX =    18 NGY =   18 NGZ =   18
   dimension x,y,z NGXF=    36 NGYF=   36 NGZF=   36
   support grid    NGXF=    36 NGYF=   36 NGZF=   36
   ions per type =               2
 NGX,Y,Z   is equivalent  to a cutoff of  11.85, 11.85, 11.85 a.u.
 NGXF,Y,Z  is equivalent  to a cutoff of  23.71, 23.71, 23.71 a.u.


 I would recommend the setting:
   dimension x,y,z NGX =    18 NGY =   18 NGZ =   18
 SYSTEM =  Carbon Diamond (relax)                  
 POSCAR =  Carbon diamond cubic                    

 Startparameter for this run:
   NWRITE =      2    write-flag & timer
   PREC   = accura    normal or accurate (medium, high low for compatibility)
   ISTART =      0    job   : 0-new  1-cont  2-samecut
   ICHARG =      2    charge: 1-file 2-atom 10-const
   ISPIN  =      2    spin polarized calculation?
   LNONCOLLINEAR =      F non collinear calculations
   LSORBIT =      F    spin-orbit coupling
   INIWAV =      1    electr: 0-lowe 1-rand  2-diag
   LASPH  =      T    aspherical Exc in radial PAW
   METAGGA=      F    non-selfconsistent MetaGGA calc.

 Electronic Relaxation 1
   ENCUT  =  500.0 eV  36.75 Ry    6.06 a.u.   4.60  4.60  4.60*2*pi/ulx,y,z
   ENINI  =  500.0     initial cutoff
   ENAUG  =  946.8 eV  augmentation charge cutoff
   NELM   =    100;   NELMIN=  2; NELMDL= -5     # of ELM steps 
   EDIFF  = 0.1E-04   stopping-criterion for ELM
   LREAL  =      F    real-space projection
   NLSPLINE    = F    spline interpolate recip. space projectors
   LCOMPAT=      F    compatible to vasp.4.4
   GGA_COMPAT  = T    GGA compatible to vasp.4.4-vasp.4.6
   LMAXPAW     = -100 max onsite density
   LMAXMIX     =    2 max onsite mixed and CHGCAR
   VOSKOWN=      0    Vosko Wilk Nusair interpolation
   ROPT   =    0.00000
 Ionic relaxation
   EDIFFG = -.1E-01   stopping-criterion for IOM
   NSW    =    200    number of steps for IOM
   NBLOCK =      1;   KBLOCK =    200    inner block; outer block 
   IBRION =      2    ionic relax: 0-MD 1-quasi-New 2-CG
   NFREE  =      1    steps in history (QN), initial steepest desc. (CG)
   ISIF   =      3    stress and relaxation
   IWAVPR =     11    prediction:  0-non 1-charg 2-wave 3-comb
   ISYM   =      2    0-nonsym 1-usesym 2-fastsym
   LCORR  =      T    Harris-Foulkes like correction to forces

   POTIM  = 0.5000    time-step for ionic-motion
   TEIN   =    0.0    initial temperature
   TEBEG  =    0.0;   TEEND  =   0.0 temperature during run
   SMASS  =  -3.00    Nose mass-parameter (am)
   estimated Nose-frequenzy (Omega)   =  0.10E-29 period in steps =****** mass=  -0.146E-27a.u.
   SCALEE = 1.0000    scale energy and forces
   NPACO  =    256;   APACO  = 16.0  distance and # of slots for P.C.
   PSTRESS=    0.0 pullay stress

  Mass of Ions in am
   POMASS =  12.01
  Ionic Valenz
   ZVAL   =   4.00
  Atomic Wigner-Seitz radii
   RWIGS  =  -1.00
  virtual crystal weights 
   VCA    =   1.00
   NELECT =       8.0000    total number of electrons
   NUPDOWN=      -1.0000    fix difference up-down

 DOS related values:
   EMIN   =  10.00;   EMAX   =-10.00  energy-range for DOS
   EFERMI =   0.00
   ISMEAR =    -5;   SIGMA  =   0.20  broadening in eV -4-tet -1-fermi 0-gaus

 Electronic relaxation 2 (details)
   IALGO  =     38    algorithm
   LDIAG  =      T    sub-space diagonalisation (order eigenvalues)
   LSUBROT=      T    optimize rotation matrix (better conditioning)
   TURBO    =      0    0=normal 1=particle mesh
   IRESTART =      0    0=no restart 2=restart with 2 vectors
   NREBOOT  =      0    no. of reboots
   NMIN     =      0    reboot dimension
   EREF     =   0.00    reference energy to select bands
   IMIX   =      4    mixing-type and parameters
     AMIX     =   0.40;   BMIX     =  1.00
     AMIX_MAG =   1.60;   BMIX_MAG =  1.00
     AMIN     =   0.10
     WC   =   100.;   INIMIX=   1;  MIXPRE=   1;  MAXMIX= -45

 Intra band minimization:
   WEIMIN = 0.0010     energy-eigenvalue tresh-hold
   EBREAK =  0.78E-07  absolut break condition
   DEPER  =   0.30     relativ break condition  

   TIME   =   0.40     timestep for ELM

  volume/ion in A,a.u.               =       5.69        38.38
  Fermi-wavevector in a.u.,A,eV,Ry     =   1.455872  2.751200 28.838420  2.119564
  Thomas-Fermi vector in A             =   2.572856
 
 Write flags
   LWAVE  =      T    write WAVECAR
   LCHARG =      T    write CHGCAR
   LVTOT  =      T    write LOCPOT, total local potential
   LVHAR  =      F    write LOCPOT, Hartree potential only
   LELF   =      T    write electronic localiz. function (ELF)
   LORBIT =     12    0 simple, 1 ext, 2 COOP (PROOUT)


 Dipole corrections
   LMONO  =      F    monopole corrections only (constant potential shift)
   LDIPOL =      F    correct potential (dipole corrections)
   IDIPOL =      0    1-x, 2-y, 3-z, 4-all directions 
   EPSILON=  1.0000000 bulk dielectric constant

 Exchange correlation treatment:
   GGA     =    --    GGA type
   LEXCH   =     8    internal setting for exchange type
   VOSKOWN=      0    Vosko Wilk Nusair interpolation
   LHFCALC =     F    Hartree Fock is set to
   LHFONE  =     F    Hartree Fock one center treatment
   AEXX    =    0.0000 exact exchange contribution

 Linear response parameters
   LEPSILON=     F    determine dielectric tensor
   LRPA    =     F    only Hartree local field effects (RPA)
   LNABLA  =     F    use nabla operator in PAW spheres
   LVEL    =     F    velocity operator in full k-point grid
   LINTERFAST=   F  fast interpolation
   KINTER  =     0    interpolate to denser k-point grid
   CSHIFT  =0.1000    complex shift for real part using Kramers Kronig
   OMEGAMAX=  -1.0    maximum frequency
   DEG_THRESHOLD= 0.2000000E-02 threshold for treating states as degnerate
   RTIME   =    0.100 relaxation time in fs

 Orbital magnetization related:
   ORBITALMAG=     F  switch on orbital magnetization
   LCHIMAG   =     F  perturbation theory with respect to B field
   DQ        =  0.001000  dq finite difference perturbation B field



--------------------------------------------------------------------------------------------------------


 conjugate gradient relaxation of ions
 charge density and potential will be updated during run
 spin polarized calculation
 Variant of blocked Davidson
 Davidson routine will perform the subspace rotation
 perform sub-space diagonalisation
    after iterative eigenvector-optimisation
 modified Broyden-mixing scheme, WC =      100.0
 initial mixing is a Kerker type mixing with AMIX =  0.4000 and BMIX =      1.0000
 Hartree-type preconditioning will be used
 using additional bands           28
 reciprocal scheme for non local part
 use partial core corrections
 calculate Harris-corrections to forces 
   (improved forces if not selfconsistent)
 use gradient corrections 
 use of overlap-Matrix (Vanderbilt PP)
 Fermi weights with tetrahedron method with Bloechl corrections


--------------------------------------------------------------------------------------------------------


  energy-cutoff  :      500.00
  volume of cell :       11.37
      direct lattice vectors                 reciprocal lattice vectors
     0.000000000  1.785000000  1.785000000    -0.280112045  0.280112045  0.280112045
     1.785000000  0.000000000  1.785000000     0.280112045 -0.280112045  0.280112045
     1.785000000  1.785000000  0.000000000     0.280112045  0.280112045 -0.280112045

  length of vectors
     2.524371209  2.524371209  2.524371209     0.485168293  0.485168293  0.485168293


 
 k-points in units of 2pi/SCALE and weight: Automatic mesh                          
   0.00000000  0.00000000  0.00000000       0.002
  -0.12500000  0.12500000  0.12500000       0.016
  -0.25000000  0.25000000  0.25000000       0.016
  -0.37500000  0.37500000  0.37500000       0.016
  -0.50000000  0.50000000  0.50000000       0.008
   0.00000000  0.00000000  0.25000000       0.012
  -0.12500000  0.12500000  0.37500000       0.047
  -0.25000000  0.25000000  0.50000000       0.047
  -0.37500000  0.37500000  0.62500000       0.047
   0.50000000 -0.50000000 -0.25000000       0.047
   0.37500000 -0.37500000 -0.12500000       0.047
   0.25000000 -0.25000000  0.00000000       0.023
   0.00000000  0.00000000  0.50000000       0.012
  -0.12500000  0.12500000  0.62500000       0.047
  -0.25000000  0.25000000  0.75000000       0.047
   0.62500000 -0.62500000 -0.12500000       0.047
   0.50000000 -0.50000000  0.00000000       0.023
   0.00000000  0.00000000  0.75000000       0.012
  -0.12500000  0.12500000  0.87500000       0.047
   0.75000000 -0.75000000  0.00000000       0.023
   0.00000000  0.00000000  1.00000000       0.006
   0.00000000  0.25000000  0.50000000       0.047
  -0.12500000  0.37500000  0.62500000       0.094
   0.75000000 -0.50000000 -0.25000000       0.047
  -0.00000000  0.25000000  0.75000000       0.047
   0.87500000 -0.62500000 -0.12500000       0.094
   0.75000000 -0.50000000  0.00000000       0.047
   1.00000000 -0.75000000  0.00000000       0.023
   1.00000000 -0.50000000  0.00000000       0.012
 
 k-points in reciprocal lattice and weights: Automatic mesh                          
   0.00000000  0.00000000  0.00000000       0.002
   0.12500000  0.00000000  0.00000000       0.016
   0.25000000  0.00000000  0.00000000       0.016
   0.37500000  0.00000000  0.00000000       0.016
   0.50000000  0.00000000  0.00000000       0.008
   0.12500000  0.12500000  0.00000000       0.012
   0.25000000  0.12500000  0.00000000       0.047
   0.37500000  0.12500000  0.00000000       0.047
   0.50000000  0.12500000  0.00000000       0.047
  -0.37500000  0.12500000  0.00000000       0.047
  -0.25000000  0.12500000  0.00000000       0.047
  -0.12500000  0.12500000  0.00000000       0.023
   0.25000000  0.25000000  0.00000000       0.012
   0.37500000  0.25000000  0.00000000       0.047
   0.50000000  0.25000000  0.00000000       0.047
  -0.37500000  0.25000000  0.00000000       0.047
  -0.25000000  0.25000000  0.00000000       0.023
   0.37500000  0.37500000  0.00000000       0.012
   0.50000000  0.37500000  0.00000000       0.047
  -0.37500000  0.37500000  0.00000000       0.023
   0.50000000  0.50000000  0.00000000       0.006
   0.37500000  0.25000000  0.12500000       0.047
   0.50000000  0.25000000  0.12500000       0.094
  -0.37500000  0.25000000  0.12500000       0.047
   0.50000000  0.37500000  0.12500000       0.047
  -0.37500000  0.37500000  0.12500000       0.094
  -0.25000000  0.37500000  0.12500000       0.047
  -0.37500000  0.50000000  0.12500000       0.023
  -0.25000000  0.50000000  0.25000000       0.012
 
 position of ions in fractional coordinates (direct lattice) 
   0.00000000  0.00000000  0.00000000
   0.25000000  0.25000000  0.25000000
 
 position of ions in cartesian coordinates  (Angst):
   0.00000000  0.00000000  0.00000000
   0.89250000  0.89250000  0.89250000
 


--------------------------------------------------------------------------------------------------------


 k-point  1 :   0.0000 0.0000 0.0000  plane waves:     283
 k-point  2 :   0.1250 0.0000 0.0000  plane waves:     295
 k-point  3 :   0.2500 0.0000 0.0000  plane waves:     296
 k-point  4 :   0.3750 0.0000 0.0000  plane waves:     287
 k-point  5 :   0.5000 0.0000 0.0000  plane waves:     272
 k-point  6 :   0.1250 0.1250 0.0000  plane waves:     295
 k-point  7 :   0.2500 0.1250 0.0000  plane waves:     295
 k-point  8 :   0.3750 0.1250 0.0000  plane waves:     286
 k-point  9 :   0.5000 0.1250 0.0000  plane waves:     283
 k-point 10 :  -0.3750 0.1250 0.0000  plane waves:     285
 k-point 11 :  -0.2500 0.1250 0.0000  plane waves:     292
 k-point 12 :  -0.1250 0.1250 0.0000  plane waves:     297
 k-point 13 :   0.2500 0.2500 0.0000  plane waves:     303
 k-point 14 :   0.3750 0.2500 0.0000  plane waves:     292
 k-point 15 :   0.5000 0.2500 0.0000  plane waves:     290
 k-point 16 :  -0.3750 0.2500 0.0000  plane waves:     286
 k-point 17 :  -0.2500 0.2500 0.0000  plane waves:     283
 k-point 18 :   0.3750 0.3750 0.0000  plane waves:     286
 k-point 19 :   0.5000 0.3750 0.0000  plane waves:     291
 k-point 20 :  -0.3750 0.3750 0.0000  plane waves:     288
 k-point 21 :   0.5000 0.5000 0.0000  plane waves:     302
 k-point 22 :   0.3750 0.2500 0.1250  plane waves:     296
 k-point 23 :   0.5000 0.2500 0.1250  plane waves:     289
 k-point 24 :  -0.3750 0.2500 0.1250  plane waves:     284
 k-point 25 :   0.5000 0.3750 0.1250  plane waves:     290
 k-point 26 :  -0.3750 0.3750 0.1250  plane waves:     286
 k-point 27 :  -0.2500 0.3750 0.1250  plane waves:     286
 k-point 28 :  -0.3750 0.5000 0.1250  plane waves:     286
 k-point 29 :  -0.2500 0.5000 0.2500  plane waves:     280

 maximum and minimum number of plane-waves per node :       303      272

 maximum number of plane-waves:       303
 maximum index in each direction: 
   IXMAX=    4   IYMAX=    4   IZMAX=    4
   IXMIN=   -5   IYMIN=   -5   IZMIN=   -4

 WARNING: aliasing errors must be expected set NGX to  20 to avoid them
 WARNING: aliasing errors must be expected set NGY to  20 to avoid them
 NGZ is ok and might be reduce to  18
 aliasing errors are usually negligible using standard VASP settings
 and one can safely disregard these warnings

 serial   3D FFT for wavefunctions
 parallel 3D FFT for charge:
    minimum data exchange during FFTs selected (reduces bandwidth)


 total amount of memory used by VASP on root node    31724. kBytes
========================================================================

   base      :      30000. kBytes
   nonl-proj :        604. kBytes
   fftplans  :        111. kBytes
   grid      :        671. kBytes
   one-center:         12. kBytes
   wavefun   :        326. kBytes
 
 Broyden mixing: mesh for mixing (old mesh)
   NGX =  9   NGY =  9   NGZ =  9
  (NGX  = 36   NGY  = 36   NGZ  = 36)
  gives a total of    729 points

 initial charge density was supplied:
 charge density of overlapping atoms calculated
 number of electron       8.0000000 magnetization       2.0000000
 keeping initial charge density in first step


--------------------------------------------------------------------------------------------------------


 Maximum index for augmentation-charges          460 (set IRDMAX)


--------------------------------------------------------------------------------------------------------


 First call to EWALD:  gamma=   0.788
 Maximum number of real-space cells 3x 3x 3
 Maximum number of reciprocal cells 3x 3x 3

 FEWALD executed in parallel
    FEWALD:  cpu time    0.00: real time    0.00


----------------------------------------- Iteration    1(   1)  ---------------------------------------


    POTLOK:  cpu time    0.01: real time    0.01
    SETDIJ:  cpu time    0.21: real time    0.21
     EDDAV:  cpu time    0.99: real time    1.02
 BZINTS: Fermi energy: 11.606005;  8.000000 electrons
         Band energy:   9.086604;  BLOECHL correction:  0.000000
       DOS:  cpu time    0.00: real time    0.00
    --------------------------------------------
      LOOP:  cpu time    1.21: real time    1.33

 eigenvalue-minimisations  :  4800
 total energy-change (2. order) :-0.1664212E+02  (-0.5169851E+03)
 number of electron       8.0000000 magnetization       2.0000000
 augmentation part        8.0000000 magnetization       2.0000000

 Free energy of the ion-electron system (eV)
  ---------------------------------------------------
  alpha Z        PSCENC =        19.27792381
  Ewald energy   TEWEN  =      -347.64704212
  -1/2 Hartree   DENC   =       -17.55372841
  -exchange  EXHF       =         0.00000000
  -V(xc)+E(xc)   XCENC  =        15.86513148
  PAW double counting   =       228.44294322     -217.90869979
  entropy T*S    EENTRO =         0.00000000
  eigenvalues    EBANDS =         9.08660433
  atomic energy  EATOM  =       293.79474529
  ---------------------------------------------------
  free energy    TOTEN  =       -16.64212219 eV

  energy without entropy =      -16.64212219  energy(sigma->0) =      -16.64212219


--------------------------------------------------------------------------------------------------------




----------------------------------------- Iteration    1(   2)  ---------------------------------------


     EDDAV:  cpu time    0.90: real time    0.92
 BZINTS: Fermi energy: 11.124917;  8.000000 electrons
         Band energy:   8.084153;  BLOECHL correction:  0.000000
       DOS:  cpu time    0.00: real time    0.00
    --------------------------------------------
      LOOP:  cpu time    0.91: real time    0.93

 eigenvalue-minimisations  :  4672
 total energy-change (2. order) :-0.1002451E+01  (-0.1002451E+01)
 number of electron       8.0000000 magnetization       2.0000000
 augmentation part        8.0000000 magnetization       2.0000000

 Free energy of the ion-electron system (eV)
  ---------------------------------------------------
  alpha Z        PSCENC =        19.27792381
  Ewald energy   TEWEN  =      -347.64704212
  -1/2 Hartree   DENC   =       -17.55372841
  -exchange  EXHF       =         0.00000000
  -V(xc)+E(xc)   XCENC  =        15.86513148
  PAW double counting   =       228.44294322     -217.90869979
  entropy T*S    EENTRO =         0.00000000
  eigenvalues    EBANDS =         8.08415307
  atomic energy  EATOM  =       293.79474529
  ---------------------------------------------------
  free energy    TOTEN  =       -17.64457345 eV

  energy without entropy =      -17.64457345  energy(sigma->0) =      -17.64457345


--------------------------------------------------------------------------------------------------------




----------------------------------------- Iteration    1(   3)  ---------------------------------------


     EDDAV:  cpu time    1.24: real time    1.26
 BZINTS: Fermi energy: 11.124917;  8.000000 electrons
         Band energy:   8.083870;  BLOECHL correction:  0.000000
       DOS:  cpu time    0.00: real time    0.00
    --------------------------------------------
      LOOP:  cpu time    1.24: real time    1.27

 eigenvalue-minimisations  :  5568
 total energy-change (2. order) :-0.2825981E-03  (-0.2825981E-03)
 number of electron       8.0000000 magnetization       2.0000000
 augmentation part        8.0000000 magnetization       2.0000000

 Free energy of the ion-electron system (eV)
  ---------------------------------------------------
  alpha Z        PSCENC =        19.27792381
  Ewald energy   TEWEN  =      -347.64704212
  -1/2 Hartree   DENC   =       -17.55372841
  -exchange  EXHF       =         0.00000000
  -V(xc)+E(xc)   XCENC  =        15.86513148
  PAW double counting   =       228.44294322     -217.90869979
  entropy T*S    EENTRO =         0.00000000
  eigenvalues    EBANDS =         8.08387047
  atomic energy  EATOM  =       293.79474529
  ---------------------------------------------------
  free energy    TOTEN  =       -17.64485605 eV

  energy without entropy =      -17.64485605  energy(sigma->0) =      -17.64485605


--------------------------------------------------------------------------------------------------------




----------------------------------------- Iteration    1(   4)  ---------------------------------------


     EDDAV:  cpu time    1.14: real time    1.16
 BZINTS: Fermi energy: 11.124917;  8.000000 electrons
         Band energy:   8.083870;  BLOECHL correction:  0.000000
       DOS:  cpu time    0.00: real time    0.00
    --------------------------------------------
      LOOP:  cpu time    1.14: real time    1.17

 eigenvalue-minimisations  :  5280
 total energy-change (2. order) :-0.1922763E-07  (-0.1922741E-07)
 number of electron       8.0000000 magnetization       2.0000000
 augmentation part        8.0000000 magnetization       2.0000000

 Free energy of the ion-electron system (eV)
  ---------------------------------------------------
  alpha Z        PSCENC =        19.27792381
  Ewald energy   TEWEN  =      -347.64704212
  -1/2 Hartree   DENC   =       -17.55372841
  -exchange  EXHF       =         0.00000000
  -V(xc)+E(xc)   XCENC  =        15.86513148
  PAW double counting   =       228.44294322     -217.90869979
  entropy T*S    EENTRO =         0.00000000
  eigenvalues    EBANDS =         8.08387045
  atomic energy  EATOM  =       293.79474529
  ---------------------------------------------------
  free energy    TOTEN  =       -17.64485606 eV

  energy without entropy =      -17.64485606  energy(sigma->0) =      -17.64485606


--------------------------------------------------------------------------------------------------------




----------------------------------------- Iteration    1(   5)  ---------------------------------------


     EDDAV:  cpu time    1.17: real time    1.19
 BZINTS: Fermi energy: 11.124917;  8.000000 electrons
         Band energy:   8.083870;  BLOECHL correction:  0.000000
       DOS:  cpu time    0.00: real time    0.00
    CHARGE:  cpu time    0.01: real time    0.01
    MIXING:  cpu time    0.00: real time    0.00
    --------------------------------------------
      LOOP:  cpu time    1.18: real time    1.21

 eigenvalue-minimisations  :  5376
 total energy-change (2. order) :-0.2273737E-12  (-0.3960786E-13)
 number of electron       8.0000000 magnetization      -0.8891018
 augmentation part       -0.0358793 magnetization      -0.8896654

 Broyden mixing:
  rms(total) = 0.21860E+01    rms(broyden)= 0.21859E+01
  rms(prec ) = 0.27820E+01
  weight for this iteration     100.00

 Free energy of the ion-electron system (eV)
  ---------------------------------------------------
  alpha Z        PSCENC =        19.27792381
  Ewald energy   TEWEN  =      -347.64704212
  -1/2 Hartree   DENC   =       -17.55372841
  -exchange  EXHF       =         0.00000000
  -V(xc)+E(xc)   XCENC  =        15.86513148
  PAW double counting   =       228.44294322     -217.90869979
  entropy T*S    EENTRO =         0.00000000
  eigenvalues    EBANDS =         8.08387045
  atomic energy  EATOM  =       293.79474529
  ---------------------------------------------------
  free energy    TOTEN  =       -17.64485606 eV

  energy without entropy =      -17.64485606  energy(sigma->0) =      -17.64485606


--------------------------------------------------------------------------------------------------------




----------------------------------------- Iteration    1(   6)  ---------------------------------------


    POTLOK:  cpu time    0.01: real time    0.01
    SETDIJ:  cpu time    0.21: real time    0.21
     EDDAV:  cpu time    0.96: real time    0.98
 BZINTS: Fermi energy: 11.124917;  8.000000 electrons
         Band energy:  11.457375;  BLOECHL correction:  0.000000
       DOS:  cpu time    0.00: real time    0.00
    CHARGE:  cpu time    0.01: real time    0.01
    MIXING:  cpu time    0.00: real time    0.00
    --------------------------------------------
      LOOP:  cpu time    1.19: real time    1.22

 eigenvalue-minimisations  :  4768
 total energy-change (2. order) :-0.2786157E+00  (-0.3389477E-01)
 number of electron       8.0000000 magnetization       1.2047605
 augmentation part       -0.0360999 magnetization       1.2050642

 Broyden mixing:
  rms(total) = 0.13527E+01    rms(broyden)= 0.13527E+01
  rms(prec ) = 0.16460E+01
  weight for this iteration     100.00

 eigenvalues of (default mixing * dielectric matrix)
  average eigenvalue GAMMA=   0.9533
  0.9533

 Free energy of the ion-electron system (eV)
  ---------------------------------------------------
  alpha Z        PSCENC =        19.27792381
  Ewald energy   TEWEN  =      -347.64704212
  -1/2 Hartree   DENC   =       -21.22434658
  -exchange  EXHF       =         0.00000000
  -V(xc)+E(xc)   XCENC  =        15.95875338
  PAW double counting   =      2711.19750825    -2700.73838911
  entropy T*S    EENTRO =         0.00000000
  eigenvalues    EBANDS =        11.45737531
  atomic energy  EATOM  =       293.79474529
  ---------------------------------------------------
  free energy    TOTEN  =       -17.92347177 eV

  energy without entropy =      -17.92347177  energy(sigma->0) =      -17.92347177


--------------------------------------------------------------------------------------------------------




----------------------------------------- Iteration    1(   7)  ---------------------------------------


    POTLOK:  cpu time    0.01: real time    0.01
    SETDIJ:  cpu time    0.21: real time    0.21
     EDDAV:  cpu time    1.03: real time    1.05
 BZINTS: Fermi energy: 11.636073;  8.000000 electrons
         Band energy:  14.884871;  BLOECHL correction:  0.000000
       DOS:  cpu time    0.00: real time    0.00
    CHARGE:  cpu time    0.01: real time    0.01
    MIXING:  cpu time    0.00: real time    0.00
    --------------------------------------------
      LOOP:  cpu time    1.25: real time    1.30

 eigenvalue-minimisations  :  5120
 total energy-change (2. order) : 0.2835019E+00  (-0.2209831E-01)
 number of electron       8.0000000 magnetization       0.0737755
 augmentation part       -0.0362033 magnetization       0.0733367

 Broyden mixing:
  rms(total) = 0.70730E+00    rms(broyden)= 0.70730E+00
  rms(prec ) = 0.75521E+00
  weight for this iteration     100.00

 eigenvalues of (default mixing * dielectric matrix)
  average eigenvalue GAMMA=   1.5263
  0.6613  2.3912

 Free energy of the ion-electron system (eV)
  ---------------------------------------------------
  alpha Z        PSCENC =        19.27792381
  Ewald energy   TEWEN  =      -347.64704212
  -1/2 Hartree   DENC   =       -24.76327728
  -exchange  EXHF       =         0.00000000
  -V(xc)+E(xc)   XCENC  =        16.36997954
  PAW double counting   =      8333.46571621    -8323.02288679
  entropy T*S    EENTRO =         0.00000000
  eigenvalues    EBANDS =        14.88487149
  atomic energy  EATOM  =       293.79474529
  ---------------------------------------------------
  free energy    TOTEN  =       -17.63996985 eV

  energy without entropy =      -17.63996985  energy(sigma->0) =      -17.63996985


--------------------------------------------------------------------------------------------------------




----------------------------------------- Iteration    1(   8)  ---------------------------------------


    POTLOK:  cpu time    0.01: real time    0.01
    SETDIJ:  cpu time    0.21: real time    0.21
     EDDAV:  cpu time    1.07: real time    1.09
 BZINTS: Fermi energy: 11.606005;  8.000000 electrons
         Band energy:  16.224504;  BLOECHL correction:  0.000000
       DOS:  cpu time    0.00: real time    0.00
    CHARGE:  cpu time    0.01: real time    0.01
    MIXING:  cpu time    0.00: real time    0.00
    --------------------------------------------
      LOOP:  cpu time    1.29: real time    1.32

 eigenvalue-minimisations  :  5216
 total energy-change (2. order) :-0.3000234E+00  (-0.5413682E-02)
 number of electron       8.0000000 magnetization      -0.0348501
 augmentation part       -0.0362701 magnetization      -0.0348365

 Broyden mixing:
  rms(total) = 0.13472E+00    rms(broyden)= 0.13472E+00
  rms(prec ) = 0.15482E+00
  weight for this iteration     100.00

 eigenvalues of (default mixing * dielectric matrix)
  average eigenvalue GAMMA=   1.3195
  2.6261  0.7026  0.6297

 Free energy of the ion-electron system (eV)
  ---------------------------------------------------
  alpha Z        PSCENC =        19.27792381
  Ewald energy   TEWEN  =      -347.64704212
  -1/2 Hartree   DENC   =       -26.42852455
  -exchange  EXHF       =         0.00000000
  -V(xc)+E(xc)   XCENC  =        16.42036202
  PAW double counting   =     12430.65253850   -12420.23449987
  entropy T*S    EENTRO =         0.00000000
  eigenvalues    EBANDS =        16.22450370
  atomic energy  EATOM  =       293.79474529
  ---------------------------------------------------
  free energy    TOTEN  =       -17.93999321 eV

  energy without entropy =      -17.93999321  energy(sigma->0) =      -17.93999321


--------------------------------------------------------------------------------------------------------




----------------------------------------- Iteration    1(   9)  ---------------------------------------


    POTLOK:  cpu time    0.01: real time    0.01
    SETDIJ:  cpu time    0.21: real time    0.21
     EDDAV:  cpu time    0.91: real time    0.93
 BZINTS: Fermi energy: 11.154985;  8.000000 electrons
         Band energy:  16.139336;  BLOECHL correction:  0.000000
       DOS:  cpu time    0.00: real time    0.00
    CHARGE:  cpu time    0.01: real time    0.01
    MIXING:  cpu time    0.00: real time    0.00
    --------------------------------------------
      LOOP:  cpu time    1.13: real time    1.16

 eigenvalue-minimisations  :  4608
 total energy-change (2. order) :-0.5958117E-03  (-0.1140658E-03)
 number of electron       8.0000000 magnetization      -0.0000335
 augmentation part       -0.0362674 magnetization      -0.0000283

 Broyden mixing:
  rms(total) = 0.47807E-01    rms(broyden)= 0.47807E-01
  rms(prec ) = 0.71003E-01
  weight for this iteration     100.00

 eigenvalues of (default mixing * dielectric matrix)
  average eigenvalue GAMMA=   1.4293
  2.4566  1.9432  0.6918  0.6257

 Free energy of the ion-electron system (eV)
  ---------------------------------------------------
  alpha Z        PSCENC =        19.27792381
  Ewald energy   TEWEN  =      -347.64704212
  -1/2 Hartree   DENC   =       -26.34707168
  -exchange  EXHF       =         0.00000000
  -V(xc)+E(xc)   XCENC  =        16.41595415
  PAW double counting   =     12826.63966999   -12816.21410490
  entropy T*S    EENTRO =         0.00000000
  eigenvalues    EBANDS =        16.13933644
  atomic energy  EATOM  =       293.79474529
  ---------------------------------------------------
  free energy    TOTEN  =       -17.94058902 eV

  energy without entropy =      -17.94058902  energy(sigma->0) =      -17.94058902


--------------------------------------------------------------------------------------------------------




----------------------------------------- Iteration    1(  10)  ---------------------------------------


    POTLOK:  cpu time    0.01: real time    0.01
    SETDIJ:  cpu time    0.21: real time    0.21
     EDDAV:  cpu time    0.91: real time    0.94
 BZINTS: Fermi energy: 11.154985;  8.000000 electrons
         Band energy:  15.910613;  BLOECHL correction:  0.000000
       DOS:  cpu time    0.00: real time    0.00
    CHARGE:  cpu time    0.01: real time    0.01
    MIXING:  cpu time    0.00: real time    0.00
    --------------------------------------------
      LOOP:  cpu time    1.14: real time    1.17

 eigenvalue-minimisations  :  4704
 total energy-change (2. order) : 0.1561036E-03  (-0.1724818E-03)
 number of electron       8.0000000 magnetization       0.0013994
 augmentation part       -0.0362350 magnetization       0.0013986

 Broyden mixing:
  rms(total) = 0.52957E-02    rms(broyden)= 0.52931E-02
  rms(prec ) = 0.71472E-02
  weight for this iteration     100.00

 eigenvalues of (default mixing * dielectric matrix)
  average eigenvalue GAMMA=   1.2690
  2.4444  1.9792  0.7024  0.6438  0.5752

 Free energy of the ion-electron system (eV)
  ---------------------------------------------------
  alpha Z        PSCENC =        19.27792381
  Ewald energy   TEWEN  =      -347.64704212
  -1/2 Hartree   DENC   =       -26.11394265
  -exchange  EXHF       =         0.00000000
  -V(xc)+E(xc)   XCENC  =        16.39900601
  PAW double counting   =     13133.95381348   -13123.51554999
  entropy T*S    EENTRO =         0.00000000
  eigenvalues    EBANDS =        15.91061324
  atomic energy  EATOM  =       293.79474529
  ---------------------------------------------------
  free energy    TOTEN  =       -17.94043292 eV

  energy without entropy =      -17.94043292  energy(sigma->0) =      -17.94043292


--------------------------------------------------------------------------------------------------------




----------------------------------------- Iteration    1(  11)  ---------------------------------------


    POTLOK:  cpu time    0.01: real time    0.01
    SETDIJ:  cpu time    0.21: real time    0.21
     EDDAV:  cpu time    1.06: real time    1.09
 BZINTS: Fermi energy: 11.154985;  8.000000 electrons
         Band energy:  15.914514;  BLOECHL correction:  0.000000
       DOS:  cpu time    0.00: real time    0.00
    CHARGE:  cpu time    0.01: real time    0.01
    MIXING:  cpu time    0.00: real time    0.00
    --------------------------------------------
      LOOP:  cpu time    1.29: real time    1.32

 eigenvalue-minimisations  :  5120
 total energy-change (2. order) :-0.4123111E-04  (-0.9326302E-05)
 number of electron       8.0000000 magnetization      -0.0002478
 augmentation part       -0.0362330 magnetization      -0.0002469

 Broyden mixing:
  rms(total) = 0.20762E-02    rms(broyden)= 0.20759E-02
  rms(prec ) = 0.37197E-02
  weight for this iteration     100.00

 eigenvalues of (default mixing * dielectric matrix)
  average eigenvalue GAMMA=   1.2978
  2.4147  2.0563  1.3458  0.6854  0.6767  0.6076

 Free energy of the ion-electron system (eV)
  ---------------------------------------------------
  alpha Z        PSCENC =        19.27792381
  Ewald energy   TEWEN  =      -347.64704212
  -1/2 Hartree   DENC   =       -26.11870459
  -exchange  EXHF       =         0.00000000
  -V(xc)+E(xc)   XCENC  =        16.39956058
  PAW double counting   =     13131.26247689   -13120.82394761
  entropy T*S    EENTRO =         0.00000000
  eigenvalues    EBANDS =        15.91451360
  atomic energy  EATOM  =       293.79474529
  ---------------------------------------------------
  free energy    TOTEN  =       -17.94047415 eV

  energy without entropy =      -17.94047415  energy(sigma->0) =      -17.94047415


--------------------------------------------------------------------------------------------------------




----------------------------------------- Iteration    1(  12)  ---------------------------------------


    POTLOK:  cpu time    0.01: real time    0.01
    SETDIJ:  cpu time    0.21: real time    0.21
     EDDAV:  cpu time    0.99: real time    1.01
 BZINTS: Fermi energy: 11.154985;  8.000000 electrons
         Band energy:  15.919473;  BLOECHL correction:  0.000000
       DOS:  cpu time    0.00: real time    0.00
    --------------------------------------------
      LOOP:  cpu time    1.20: real time    1.23

 eigenvalue-minimisations  :  4896
 total energy-change (2. order) :-0.9098683E-05  (-0.7315498E-06)
 number of electron       8.0000000 magnetization      -0.0002478
 augmentation part       -0.0362330 magnetization      -0.0002469

 Free energy of the ion-electron system (eV)
  ---------------------------------------------------
  alpha Z        PSCENC =        19.27792381
  Ewald energy   TEWEN  =      -347.64704212
  -1/2 Hartree   DENC   =       -26.12452459
  -exchange  EXHF       =         0.00000000
  -V(xc)+E(xc)   XCENC  =        16.40015216
  PAW double counting   =     13121.00682416   -13110.56803501
  entropy T*S    EENTRO =         0.00000000
  eigenvalues    EBANDS =        15.91947305
  atomic energy  EATOM  =       293.79474529
  ---------------------------------------------------
  free energy    TOTEN  =       -17.94048325 eV

  energy without entropy =      -17.94048325  energy(sigma->0) =      -17.94048325


--------------------------------------------------------------------------------------------------------




 average (electrostatic) potential at core
  the test charge radii are     0.5770
  (the norm of the test charge is              1.0000)
       1 -71.8122       2 -71.8122
 
 
 
 E-fermi :  11.1550     XC(G=0): -13.3751     alpha+bet :-18.5862


 spin component 1

 k-point   1 :       0.0000    0.0000    0.0000
  band No.  band energies     occupation 
      1     -10.5720      1.00000
      2      11.0888      1.00000
      3      11.0888      1.00000
      4      11.0888      1.00000
      5      16.6083      0.00000
      6      16.6083      0.00000
      7      16.6083      0.00000
      8      24.0809      0.00000
      9      30.1303      0.00000
     10      37.3952      0.00000
     11      37.3952      0.00000
     12      38.4500      0.00000
     13      38.4500      0.00000
     14      38.4500      0.00000
     15      45.6392      0.00000
     16      58.1971      0.00000
     17      58.1971      0.00000
     18      58.1971      0.00000
     19      77.9854      0.00000
     20      77.9854      0.00000
     21      77.9854      0.00000
     22      82.3496      0.00000
     23      82.3496      0.00000
     24      85.2186      0.00000
     25      85.2186      0.00000
     26      85.2186      0.00000
     27      90.3992      0.00000
     28      90.3992      0.00000
     29      90.3992      0.00000
     30      97.5513      0.00000
     31     109.5277      0.00000
     32     109.5277      0.00000

 k-point   2 :       0.1250    0.0000    0.0000
  band No.  band energies     occupation 
      1     -10.1402      1.00000
      2       8.5689      1.00000
      3      10.3949      1.00000
      4      10.3949      1.00000
      5      17.4640      0.00000
      6      17.4640      0.00000
      7      17.8542      0.00000
      8      24.4998      0.00000
      9      30.8091      0.00000
     10      34.3633      0.00000
     11      34.3633      0.00000
     12      37.1708      0.00000
     13      43.2378      0.00000
     14      43.2378      0.00000
     15      48.7146      0.00000
     16      56.6189      0.00000
     17      57.1412      0.00000
     18      57.1412      0.00000
     19      73.8933      0.00000
     20      73.8933      0.00000
     21      80.5664      0.00000
     22      80.5665      0.00000
     23      80.6616      0.00000
     24      85.7185      0.00000
     25      87.4208      0.00000
     26      88.2732      0.00000
     27      88.2732      0.00000
     28      94.5433      0.00000
     29      94.5433      0.00000
     30      95.5517      0.00000
     31     104.2705      0.00000
     32     104.2705      0.00000

 k-point   3 :       0.2500    0.0000    0.0000
  band No.  band energies     occupation 
      1      -8.8570      1.00000
      2       4.3643      1.00000
      3       9.2666      1.00000
      4       9.2666      1.00000
      5      18.8172      0.00000
      6      18.8172      0.00000
      7      19.0495      0.00000
      8      25.5413      0.00000
      9      31.6188      0.00000
     10      33.2903      0.00000
     11      33.2903      0.00000
     12      36.3882      0.00000
     13      49.8311      0.00000
     14      49.8311      0.00000
     15      53.5318      0.00000
     16      53.5318      0.00000
     17      54.4085      0.00000
     18      55.3611      0.00000
     19      69.9201      0.00000
     20      69.9201      0.00000
     21      79.5905      0.00000
     22      80.4266      0.00000
     23      80.4266      0.00000
     24      85.7166      0.00000
     25      85.7166      0.00000
     26      87.1761      0.00000
     27      87.7265      0.00000
     28      92.4607      0.00000
     29      93.4489      0.00000
     30      93.4489      0.00000
     31     102.1275      0.00000
     32     102.8003      0.00000

 k-point   4 :       0.3750    0.0000    0.0000
  band No.  band energies     occupation 
      1      -6.7914      1.00000
      2       0.2843      1.00000
      3       8.4926      1.00000
      4       8.4926      1.00000
      5      19.4298      0.00000
      6      19.4298      0.00000
      7      19.5351      0.00000
      8      26.4946      0.00000
      9      32.1134      0.00000
     10      34.9370      0.00000
     11      34.9370      0.00000
     12      36.0312      0.00000
     13      48.1079      0.00000
     14      48.1079      0.00000
     15      55.1452      0.00000
     16      57.6089      0.00000
     17      57.6089      0.00000
     18      63.2251      0.00000
     19      68.9033      0.00000
     20      68.9033      0.00000
     21      72.6651      0.00000
     22      76.0352      0.00000
     23      76.0352      0.00000
     24      84.8202      0.00000
     25      84.8202      0.00000
     26      85.2707      0.00000
     27      87.0430      0.00000
     28      87.0430      0.00000
     29      89.3381      0.00000
     30      94.1717      0.00000
     31      95.4954      0.00000
     32      97.9651      0.00000

 k-point   5 :       0.5000    0.0000    0.0000
  band No.  band energies     occupation 
      1      -4.8106      1.00000
      2      -2.3893      1.00000
      3       8.2579      1.00000
      4       8.2579      1.00000
      5      19.5040      0.00000
      6      19.5040      0.00000
      7      19.6630      0.00000
      8      26.8299      0.00000
      9      32.9774      0.00000
     10      35.2147      0.00000
     11      36.9281      0.00000
     12      36.9281      0.00000
     13      44.8329      0.00000
     14      44.8329      0.00000
     15      56.8901      0.00000
     16      64.2478      0.00000
     17      64.2478      0.00000
     18      66.5759      0.00000
     19      68.0085      0.00000
     20      68.0085      0.00000
     21      70.4054      0.00000
     22      70.4055      0.00000
     23      74.1605      0.00000
     24      75.7619      0.00000
     25      84.1055      0.00000
     26      84.1055      0.00000
     27      86.6289      0.00000
     28      86.6289      0.00000
     29      90.8137      0.00000
     30      94.3036      0.00000
     31      95.8514      0.00000
     32      95.8514      0.00000

 k-point   6 :       0.1250    0.1250    0.0000
  band No.  band energies     occupation 
      1      -9.9959      1.00000
      2       9.2858      1.00000
      3       9.2858      1.00000
      4       9.6522      1.00000
      5      16.1858      0.00000
      6      18.8400      0.00000
      7      18.8400      0.00000
      8      24.1254      0.00000
      9      31.1260      0.00000
     10      31.5917      0.00000
     11      38.1241      0.00000
     12      39.7874      0.00000
     13      39.7874      0.00000
     14      42.9566      0.00000
     15      50.8255      0.00000
     16      56.2061      0.00000
     17      56.2061      0.00000
     18      57.4829      0.00000
     19      72.9141      0.00000
     20      75.7489      0.00000
     21      75.7489      0.00000
     22      78.6377      0.00000
     23      84.6329      0.00000
     24      85.9643      0.00000
     25      85.9643      0.00000
     26      88.1365      0.00000
     27      92.7999      0.00000
     28      92.7999      0.00000
     29      93.1966      0.00000
     30      95.8834      0.00000
     31     104.4531      0.00000
     32     104.9720      0.00000

 k-point   7 :       0.2500    0.1250    0.0000
  band No.  band energies     occupation 
      1      -8.9963      1.00000
      2       5.8764      1.00000
      3       8.1146      1.00000
      4       8.9717      1.00000
      5      16.8338      0.00000
      6      20.3347      0.00000
      7      20.4631      0.00000
      8      23.7431      0.00000
      9      31.0442      0.00000
     10      32.1135      0.00000
     11      36.7152      0.00000
     12      38.9225      0.00000
     13      45.1504      0.00000
     14      48.1011      0.00000
     15      53.0091      0.00000
     16      53.9891      0.00000
     17      56.1419      0.00000
     18      56.6490      0.00000
     19      68.4281      0.00000
     20      71.7341      0.00000
     21      76.3940      0.00000
     22      80.7671      0.00000
     23      81.8625      0.00000
     24      83.0398      0.00000
     25      85.7146      0.00000
     26      86.4403      0.00000
     27      89.1246      0.00000
     28      94.3035      0.00000
     29      96.4278      0.00000
     30      98.6787      0.00000
     31     100.7279      0.00000
     32     100.9982      0.00000

 k-point   8 :       0.3750    0.1250    0.0000
  band No.  band energies     occupation 
      1      -7.1835      1.00000
      2       1.8566      1.00000
      3       7.4771      1.00000
      4       7.8153      1.00000
      5      17.9905      0.00000
      6      21.0119      0.00000
      7      21.1432      0.00000
      8      24.4658      0.00000
      9      32.1410      0.00000
     10      32.8308      0.00000
     11      37.1735      0.00000
     12      38.0326      0.00000
     13      47.8870      0.00000
     14      52.4104      0.00000
     15      52.7256      0.00000
     16      53.3784      0.00000
     17      56.4257      0.00000
     18      63.4820      0.00000
     19      67.2087      0.00000
     20      68.9503      0.00000
     21      73.3466      0.00000
     22      77.0554      0.00000
     23      77.3392      0.00000
     24      79.9285      0.00000
     25      83.9762      0.00000
     26      86.6187      0.00000
     27      88.9217      0.00000
     28      91.1438      0.00000
     29      92.5412      0.00000
     30      94.2988      0.00000
     31      94.4745      0.00000
     32      96.6956      0.00000

 k-point   9 :       0.5000    0.1250    0.0000
  band No.  band energies     occupation 
      1      -4.8588      1.00000
      2      -1.5780      1.00000
      3       6.8379      1.00000
      4       7.4974      1.00000
      5      18.5882      0.00000
      6      20.8653      0.00000
      7      21.1615      0.00000
      8      26.2585      0.00000
      9      31.5712      0.00000
     10      35.0362      0.00000
     11      37.2718      0.00000
     12      37.6779      0.00000
     13      45.4340      0.00000
     14      48.8338      0.00000
     15      55.4886      0.00000
     16      60.4848      0.00000
     17      63.4510      0.00000
     18      65.6700      0.00000
     19      67.4626      0.00000
     20      68.5801      0.00000
     21      69.4902      0.00000
     22      73.0055      0.00000
     23      73.0323      0.00000
     24      79.6320      0.00000
     25      80.6597      0.00000
     26      82.6888      0.00000
     27      83.5192      0.00000
     28      87.6785      0.00000
     29      91.0484      0.00000
     30      92.6661      0.00000
     31      97.4356      0.00000
     32      97.8525      0.00000

 k-point  10 :      -0.3750    0.1250    0.0000
  band No.  band energies     occupation 
      1      -5.6230      1.00000
      2      -0.5815      1.00000
      3       6.4084      1.00000
      4       8.1065      1.00000
      5      19.1723      0.00000
      6      20.2159      0.00000
      7      21.0781      0.00000
      8      26.4622      0.00000
      9      31.5267      0.00000
     10      33.8965      0.00000
     11      35.6078      0.00000
     12      39.1209      0.00000
     13      47.1922      0.00000
     14      49.0292      0.00000
     15      53.9047      0.00000
     16      58.1452      0.00000
     17      63.2252      0.00000
     18      66.3197      0.00000
     19      67.2630      0.00000
     20      67.6838      0.00000
     21      71.4876      0.00000
     22      71.8370      0.00000
     23      74.9772      0.00000
     24      80.4305      0.00000
     25      80.7388      0.00000
     26      82.8811      0.00000
     27      85.2683      0.00000
     28      88.5945      0.00000
     29      91.0869      0.00000
     30      93.1372      0.00000
     31      96.4241      0.00000
     32      98.5345      0.00000

 k-point  11 :      -0.2500    0.1250    0.0000
  band No.  band energies     occupation 
      1      -7.8741      1.00000
      2       3.1945      1.00000
      3       6.6243      1.00000
      4       9.1660      1.00000
      5      19.1744      0.00000
      6      19.6093      0.00000
      7      20.5811      0.00000
      8      25.0941      0.00000
      9      31.4416      0.00000
     10      31.9993      0.00000
     11      34.8034      0.00000
     12      39.9832      0.00000
     13      47.9651      0.00000
     14      50.2396      0.00000
     15      53.7727      0.00000
     16      54.0413      0.00000
     17      56.0648      0.00000
     18      59.8497      0.00000
     19      68.0179      0.00000
     20      68.3113      0.00000
     21      76.1679      0.00000
     22      78.5625      0.00000
     23      79.8330      0.00000
     24      80.3817      0.00000
     25      84.1291      0.00000
     26      87.3987      0.00000
     27      88.5241      0.00000
     28      90.3445      0.00000
     29      94.2045      0.00000
     30      95.8456      0.00000
     31      97.2240      0.00000
     32      98.3116      0.00000

 k-point  12 :      -0.1250    0.1250    0.0000
  band No.  band energies     occupation 
      1      -9.4238      1.00000
[...]
      8      29.8460      0.00000
      9      36.4892      0.00000
     10      36.4892      0.00000
     11      45.3501      0.00000
     12      45.3501      0.00000
     13      51.2869      0.00000
     14      51.2869      0.00000
     15      61.9996      0.00000
     16      61.9996      0.00000
     17      62.5370      0.00000
     18      62.5370      0.00000
     19      63.4614      0.00000
     20      63.4614      0.00000
     21      66.9559      0.00000
     22      66.9559      0.00000
     23      83.6066      0.00000
     24      83.6066      0.00000
     25      86.8382      0.00000
     26      86.8383      0.00000
     27      91.4187      0.00000
     28      91.4187      0.00000
     29      97.7503      0.00000
     30      97.7503      0.00000
     31     107.3351      0.00000
     32     107.3351      0.00000

 k-point  22 :       0.3750    0.2500    0.1250
  band No.  band energies     occupation 
      1      -7.4469      1.00000
      2       5.2048      1.00000
      3       6.1550      1.00000
      4       8.9650      1.00000
      5      18.8267      0.00000
      6      22.4935      0.00000
      7      24.2094      0.00000
      8      24.2989      0.00000
      9      33.5852      0.00000
     10      34.4680      0.00000
     11      38.4989      0.00000
     12      46.0232      0.00000
     13      46.3369      0.00000
     14      52.9530      0.00000
     15      54.8131      0.00000
     16      56.2023      0.00000
     17      58.5443      0.00000
     18      65.2952      0.00000
     19      68.8926      0.00000
     20      72.8825      0.00000
     21      79.0344      0.00000
     22      80.0651      0.00000
     23      82.3202      0.00000
     24      83.9539      0.00000
     25      87.9035      0.00000
     26      92.1731      0.00000
     27      92.6208      0.00000
     28      94.9921      0.00000
     29      97.6140      0.00000
     30     100.6957      0.00000
     31     103.4360      0.00000
     32     105.4124      0.00000

 k-point  23 :       0.5000    0.2500    0.1250
  band No.  band energies     occupation 
      1      -5.3155      1.00000
      2       1.6929      1.00000
      3       5.3868      1.00000
      4       7.6758      1.00000
      5      20.2458      0.00000
      6      22.0531      0.00000
      7      25.1651      0.00000
      8      26.0245      0.00000
      9      32.9725      0.00000
     10      35.3310      0.00000
     11      39.1259      0.00000
     12      43.9574      0.00000
     13      50.2816      0.00000
     14      53.2036      0.00000
     15      56.2240      0.00000
     16      57.5217      0.00000
     17      64.0502      0.00000
     18      68.3453      0.00000
     19      69.2799      0.00000
     20      71.1260      0.00000
     21      73.1663      0.00000
     22      77.3851      0.00000
     23      79.7854      0.00000
     24      81.1428      0.00000
     25      83.0048      0.00000
     26      87.7564      0.00000
     27      91.8101      0.00000
     28      94.0610      0.00000
     29      95.4570      0.00000
     30      98.1179      0.00000
     31      98.6179      0.00000
     32     100.9142      0.00000

 k-point  24 :      -0.3750    0.2500    0.1250
  band No.  band energies     occupation 
      1      -3.2319      1.00000
      2      -1.0137      1.00000
      3       5.3867      1.00000
      4       7.0185      1.00000
      5      20.4947      0.00000
      6      21.9504      0.00000
      7      25.9410      0.00000
      8      27.7092      0.00000
      9      30.9108      0.00000
     10      37.1782      0.00000
     11      39.2352      0.00000
     12      41.9471      0.00000
     13      50.9506      0.00000
     14      54.1734      0.00000
     15      56.1720      0.00000
     16      63.1655      0.00000
     17      65.5919      0.00000
     18      67.5901      0.00000
     19      68.3816      0.00000
     20      69.8859      0.00000
     21      75.4218      0.00000
     22      75.4605      0.00000
     23      76.0284      0.00000
     24      81.4675      0.00000
     25      82.9276      0.00000
     26      84.4585      0.00000
     27      87.7717      0.00000
     28      90.7722      0.00000
     29      95.2162      0.00000
     30      96.8035      0.00000
     31      97.3261      0.00000
     32     103.7326      0.00000

 k-point  25 :       0.5000    0.3750    0.1250
  band No.  band energies     occupation 
      1      -4.5894      1.00000
      2       2.6725      1.00000
      3       4.5814      1.00000
      4       5.6686      1.00000
      5      18.5270      0.00000
      6      20.7928      0.00000
      7      25.7671      0.00000
      8      28.0648      0.00000
      9      34.6449      0.00000
     10      35.5483      0.00000
     11      42.3544      0.00000
     12      46.0477      0.00000
     13      50.7656      0.00000
     14      52.2044      0.00000
     15      54.6996      0.00000
     16      60.3579      0.00000
     17      61.9303      0.00000
     18      62.5276      0.00000
     19      68.5699      0.00000
     20      70.1381      0.00000
     21      74.3370      0.00000
     22      75.8519      0.00000
     23      78.5311      0.00000
     24      81.7551      0.00000
     25      81.9284      0.00000
     26      86.7280      0.00000
     27      91.2281      0.00000
     28      95.0726      0.00000
     29      96.0046      0.00000
     30      98.8376      0.00000
     31     101.2006      0.00000
     32     103.9499      0.00000

 k-point  26 :      -0.3750    0.3750    0.1250
  band No.  band energies     occupation 
      1      -2.2476      1.00000
      2       0.3633      1.00000
      3       3.0979      1.00000
      4       5.2427      1.00000
      5      19.7392      0.00000
      6      23.2754      0.00000
      7      25.3151      0.00000
      8      27.8910      0.00000
      9      32.2192      0.00000
     10      36.3544      0.00000
     11      40.9687      0.00000
     12      45.0844      0.00000
     13      53.5068      0.00000
     14      54.4219      0.00000
     15      59.1245      0.00000
     16      60.2947      0.00000
     17      62.3968      0.00000
     18      64.7746      0.00000
     19      66.5039      0.00000
     20      69.0770      0.00000
     21      71.8301      0.00000
     22      75.2938      0.00000
     23      75.8213      0.00000
     24      82.3230      0.00000
     25      83.4360      0.00000
     26      84.3157      0.00000
     27      86.9423      0.00000
     28      92.5357      0.00000
     29      93.9049      0.00000
     30      96.7737      0.00000
     31     100.2695      0.00000
     32     105.4950      0.00000

 k-point  27 :      -0.2500    0.3750    0.1250
  band No.  band energies     occupation 
      1      -3.0909      1.00000
      2       1.1850      1.00000
      3       2.5932      1.00000
      4       6.1761      1.00000
      5      20.6144      0.00000
      6      23.2611      0.00000
      7      25.8586      0.00000
      8      27.4788      0.00000
      9      30.7172      0.00000
     10      35.8950      0.00000
     11      39.5053      0.00000
     12      45.9692      0.00000
     13      52.1541      0.00000
     14      55.0854      0.00000
     15      57.2959      0.00000
     16      59.3737      0.00000
     17      65.4665      0.00000
     18      66.0707      0.00000
     19      67.9152      0.00000
     20      69.3742      0.00000
     21      71.5272      0.00000
     22      76.0532      0.00000
     23      78.0700      0.00000
     24      81.6531      0.00000
     25      82.7700      0.00000
     26      82.9001      0.00000
     27      86.8083      0.00000
     28      92.5415      0.00000
     29      92.7418      0.00000
     30      97.2561      0.00000
     31     100.3644      0.00000
     32     103.5581      0.00000

 k-point  28 :      -0.3750    0.5000    0.1250
  band No.  band energies     occupation 
      1      -0.9090      1.00000
      2      -0.9090      1.00000
      3       4.2259      1.00000
      4       4.2259      1.00000
      5      19.0496      0.00000
      6      19.0496      0.00000
      7      28.5420      0.00000
      8      28.5420      0.00000
      9      35.2769      0.00000
     10      35.2769      0.00000
     11      44.0302      0.00000
     12      44.0302      0.00000
     13      54.9632      0.00000
     14      54.9632      0.00000
     15      58.2795      0.00000
     16      58.2795      0.00000
     17      62.7330      0.00000
     18      62.7331      0.00000
     19      66.4714      0.00000
     20      66.4714      0.00000
     21      70.6590      0.00000
     22      70.6590      0.00000
     23      78.9966      0.00000
     24      78.9966      0.00000
     25      84.9480      0.00000
     26      84.9480      0.00000
     27      94.8485      0.00000
     28      94.8485      0.00000
     29      96.5523      0.00000
     30      96.5523      0.00000
     31     101.6594      0.00000
     32     101.6594      0.00000

 k-point  29 :      -0.2500    0.5000    0.2500
  band No.  band energies     occupation 
      1      -0.3955      1.00000
      2      -0.3955      1.00000
      3       3.1361      1.00000
      4       3.1361      1.00000
      5      22.9360      0.00000
      6      22.9360      0.00000
      7      25.1281      0.00000
      8      25.1281      0.00000
      9      34.4201      0.00000
     10      34.4201      0.00000
     11      43.4810      0.00000
     12      43.4810      0.00000
     13      56.3904      0.00000
     14      56.3904      0.00000
     15      59.1119      0.00000
     16      59.1119      0.00000
     17      61.6108      0.00000
     18      61.6108      0.00000
     19      69.5798      0.00000
     20      69.5798      0.00000
     21      70.9248      0.00000
     22      70.9248      0.00000
     23      82.1461      0.00000
     24      82.1461      0.00000
     25      83.5843      0.00000
     26      83.5843      0.00000
     27      83.9286      0.00000
     28      83.9286      0.00000
     29      99.6221      0.00000
     30      99.6221      0.00000
     31     101.3251      0.00000
     32     101.3251      0.00000


--------------------------------------------------------------------------------------------------------


 soft charge-density along one line, spin component           1
         0         1         2         3         4         5         6         7         8         9
 total charge-density along one line
 
 soft charge-density along one line, spin component           2
         0         1         2         3         4         5         6         7         8         9
 total charge-density along one line
 
 pseudopotential strength for first ion, spin component:           1
 12.127  20.395   0.000   0.000   0.000   0.000   0.000   0.000
 20.395  34.297   0.000   0.000   0.000   0.000   0.000   0.000
  0.000   0.000  -2.956   0.000   0.000  -5.280   0.000   0.000
  0.000   0.000   0.000  -2.956   0.000   0.000  -5.280   0.000
  0.000   0.000   0.000   0.000  -2.956   0.000   0.000  -5.280
  0.000   0.000  -5.280   0.000   0.000  -9.412   0.000   0.000
  0.000   0.000   0.000  -5.280   0.000   0.000  -9.412   0.000
  0.000   0.000   0.000   0.000  -5.280   0.000   0.000  -9.412
 pseudopotential strength for first ion, spin component:           2
 12.127  20.395   0.000   0.000   0.000   0.000   0.000   0.000
 20.395  34.297   0.000   0.000   0.000   0.000   0.000   0.000
  0.000   0.000  -2.955   0.000   0.000  -5.280   0.000   0.000
  0.000   0.000   0.000  -2.955   0.000   0.000  -5.280   0.000
  0.000   0.000   0.000   0.000  -2.955   0.000   0.000  -5.280
  0.000   0.000  -5.280   0.000   0.000  -9.412   0.000   0.000
  0.000   0.000   0.000  -5.280   0.000   0.000  -9.412   0.000
  0.000   0.000   0.000   0.000  -5.280   0.000   0.000  -9.412
 total augmentation occupancy for first ion, spin component:           1
  7.859  -2.824   0.000   0.000   0.000   0.000   0.000   0.000
 -2.824   1.077   0.000  -0.000  -0.000   0.000   0.000   0.000
  0.000   0.000  13.344   0.000   0.000  -5.404   0.000  -0.000
  0.000  -0.000   0.000  13.344   0.000  -0.000  -5.404   0.000
  0.000   0.000   0.000   0.000  13.344  -0.000   0.000  -5.404
  0.000  -0.000  -5.404  -0.000   0.000   2.199  -0.000  -0.000
  0.000   0.000  -0.000  -5.404  -0.000  -0.000   2.199  -0.000
  0.000   0.000  -0.000   0.000  -5.404   0.000  -0.000   2.199
 total augmentation occupancy for first ion, spin component:           2
  0.000  -0.000   0.000   0.000   0.000   0.000   0.000   0.000
 -0.000   0.000   0.000   0.000   0.000   0.000   0.000   0.000
  0.000   0.000   0.000   0.000   0.000  -0.000   0.000   0.000
  0.000   0.000   0.000   0.000   0.000   0.000  -0.000   0.000
  0.000   0.000   0.000   0.000   0.000   0.000   0.000  -0.000
  0.000   0.000  -0.000   0.000   0.000   0.000   0.000   0.000
  0.000   0.000   0.000  -0.000   0.000   0.000   0.000   0.000
  0.000   0.000   0.000   0.000  -0.000   0.000   0.000   0.000


------------------------ aborting loop because EDIFF is reached ----------------------------------------


 


 total charge     
 
# of ion     s       p       d       tot
----------------------------------------
  1        0.456   1.090   0.000   1.546
  2        0.456   1.090   0.000   1.546
------------------------------------------------
tot        0.913   2.179   0.000   3.092
 


 magnetization (x)
 
# of ion     s       p       d       tot
----------------------------------------
  1       -0.000   0.000   0.000   0.000
  2       -0.000   0.000   0.000   0.000
------------------------------------------------
tot       -0.000   0.000   0.000   0.000
 
    CHARGE:  cpu time    0.01: real time    0.01
    FORLOC:  cpu time    0.00: real time    0.00
    FORNL :  cpu time    0.00: real time    0.00
    STRESS:  cpu time    0.02: real time    0.02
    FORCOR:  cpu time    0.00: real time    0.00
    FORHAR:  cpu time    0.00: real time    0.00
    MIXING:  cpu time    0.00: real time    0.00

  FORCE on cell =-STRESS in cart. coord.  units (eV):
  Direction    XX          YY          ZZ          XY          YZ          ZX
  --------------------------------------------------------------------------------------
  Alpha Z    20.54679    20.54679    20.54679
  Ewald    -118.37101  -118.37101  -118.37101    -0.00000     0.00000     0.00000
  Hartree     8.43322     8.43322     8.43322     0.00000     0.00000     0.00000
  E(xc)     -33.53748   -33.53748   -33.53748    -0.00000    -0.00000    -0.00000
  Local     -32.58258   -32.58258   -32.58258     0.00001     0.00001     0.00001
  n-local     6.48003     7.16523     5.71573    -0.52238     0.06610    -0.07333
  augment     0.21033     0.21033     0.21033    -0.00001    -0.00001    -0.00001
  Kinetic   151.37238   145.17780   149.96769     6.40756    -2.03737     2.31787
  Fock        0.00000     0.00000     0.00000     0.00000     0.00000     0.00000
  -------------------------------------------------------------------------------------
  Total      -0.00778    -0.00778    -0.00778     0.00000     0.00000     0.00000
  in kB      -1.16792    -1.16792    -1.16792     0.00000     0.00000     0.00000
  external pressure =       -1.17 kB  Pullay stress =        0.00 kB


 VOLUME and BASIS-vectors are now :
 -----------------------------------------------------------------------------
  energy-cutoff  :      500.00
  volume of cell :       10.67
      direct lattice vectors                 reciprocal lattice vectors
    -0.000000000  1.747472436  1.747472436    -0.286127546  0.286127546  0.286127546
     1.747472436 -0.000000000  1.747472436     0.286127546 -0.286127546  0.286127546
     1.747472436  1.747472436  0.000000000     0.286127546  0.286127546 -0.286127546

  length of vectors
     2.471299219  2.471299219  2.471299219     0.495587447  0.495587447  0.495587447


 FORCES acting on ions
    electron-ion (+dipol)            ewald-force                    non-local-force                 convergence-correction
 -----------------------------------------------------------------------------------------------
   0.109E-06 0.109E-06 0.195E-06   -.642E-14 -.912E-14 -.142E-13   0.222E-15 0.271E-15 0.191E-15   0.150E-06 0.150E-06 0.150E-06
   -.158E-06 -.158E-06 -.110E-06   0.629E-14 0.933E-14 0.140E-13   -.222E-15 -.271E-15 -.226E-15   -.150E-06 -.150E-06 -.150E-06
 -----------------------------------------------------------------------------------------------
   -.485E-07 -.485E-07 0.851E-07   -.131E-15 0.215E-15 -.201E-15   0.000E+00 0.000E+00 -.347E-16   0.103E-13 0.927E-14 -.523E-14
 
 
 POSITION                                       TOTAL-FORCE (eV/Angst)
 -----------------------------------------------------------------------------------
      0.00000     -0.00000      0.00000        -0.000000     -0.000000     -0.000000
      0.87374      0.87374      0.87374         0.000000      0.000000      0.000000
 -----------------------------------------------------------------------------------
    total drift:                               -0.000000     -0.000000      0.000000


--------------------------------------------------------------------------------------------------------



  FREE ENERGIE OF THE ION-ELECTRON SYSTEM (eV)
  ---------------------------------------------------
  free  energy   TOTEN  =       -18.01822845 eV

  energy  without entropy=      -18.01822845  energy(sigma->0) =      -18.01822845
 
 d Force = 0.0000000E+00[ 0.000E+00, 0.000E+00]  d Energy = 0.1037310E-03-0.104E-03
 d Force = 0.0000000E+00[ 0.000E+00, 0.000E+00]  d Ewald  = 0.2494147E+00-0.249E+00


--------------------------------------------------------------------------------------------------------


    POTLOK:  cpu time    0.21: real time    0.21


--------------------------------------------------------------------------------------------------------




--------------------------------------------------------------------------------------------------------


  
 reached required accuracy - stopping structural energy minimisation
 writing wavefunctions
     LOOP+:  cpu time    3.43: real time    3.92
    4ORBIT:  cpu time    0.00: real time    0.00
 


 total charge     
 
# of ion     s       p       d       tot
----------------------------------------
  1        0.456   1.090   0.000   1.546
  2        0.456   1.090   0.000   1.546
------------------------------------------------
tot        0.913   2.179   0.000   3.092
 


 magnetization (x)
 
# of ion     s       p       d       tot
----------------------------------------
  1       -0.000   0.000   0.000   0.000
  2       -0.000   0.000   0.000   0.000
------------------------------------------------
tot       -0.000   0.000   0.000   0.000
 
 BZINTS: Fermi energy: 12.117161;  8.000000 electrons
         Band energy:  20.818517;  BLOECHL correction:  0.000000

 total amount of memory used by VASP on root node    31724. kBytes
========================================================================

   base      :      30000. kBytes
   nonl-proj :        604. kBytes
   fftplans  :        111. kBytes
   grid      :        671. kBytes
   one-center:         12. kBytes
   wavefun   :        326. kBytes
 
  
  
 General timing and accounting informations for this job:
 ========================================================
  
                  Total CPU time used (sec):       30.725
                            User time (sec):       28.720
                          System time (sec):        2.006
                         Elapsed time (sec):       33.308
  
                   Maximum memory used (kb):       49752.
                   Average memory used (kb):           0.
  
                          Minor page faults:        24030
                          Major page faults:            1
                 Voluntary context switches:         1620
