<?xml version="1.0" encoding="ISO-8859-1"?>
<modeling>
 <generator>
  <i name="program" type="string">vasp </i>
  <i name="version" type="string">5.3.3  </i>
  <i name="subversion" type="string">18Dez12 (build Jun 24 2015 15:58:02) complex                          parallel </i>
  <i name="platform" type="string">LinuxIFC </i>
  <i name="date" type="string">2023 04 23 </i>
  <i name="time" type="string">20:14:12 </i>
 </generator>
 <incar>
  <i type="string" name="SYSTEM"> Carbon Diamond (band)</i>
  <i type="int" name="ISTART">     0</i>
  <i type="string" name="PREC">accurate</i>
  <i type="string" name="ALGO"> Normal ! alorithm for electron optimiza</i>
  <i type="int" name="NSIM">     1</i>
  <i type="int" name="ISPIN">     2</i>
  <i type="int" name="ICHARG">    11</i>
  <i type="int" name="NELM">   100</i>
  <i name="EDIFF">      0.00001000</i>
  <i name="EDIFFG">     -0.01000000</i>
  <i type="int" name="NSW">     0</i>
  <i type="int" name="ISIF">     3</i>
  <i name="ENCUT">    500.00000000</i>
  <i type="logical" name="LREAL"> F  </i>
  <i type="logical" name="LPLANE"> F  </i>
  <i type="int" name="ISMEAR">     0</i>
  <i name="SIGMA">      0.10000000</i>
  <i type="logical" name="LWAVE"> T  </i>
  <i type="logical" name="LCHARG"> T  </i>
  <i type="logical" name="LVTOT"> T  </i>
  <i type="logical" name="LORBIT"> F  </i>
  <i type="logical" name="LELF"> T  </i>
  <i type="logical" name="LASPH"> T  </i>
  <i type="int" name="NELM">   100</i>
  <i type="logical" name="LASPH"> T  </i>
 </incar>
 <kpoints>
  <generation param="listgenerated">
   <i name="divisions" type="int">      50 </i>
   <v>       0.00000000       0.00000000       0.00000000 </v>
   <v>       0.50000000       0.00000000       0.50000000 </v>
   <v>       0.37500000       0.37500000       0.75000000 </v>
   <v>       0.00000000       0.00000000       0.00000000 </v>
   <v>       0.50000000       0.50000000       0.50000000 </v>
   <v>       0.50000000       0.25000000       0.75000000 </v>
   <v>       0.50000000       0.00000000       0.50000000 </v>
  </generation>
  <varray name="kpointlist" >
   <v>       0.00000000       0.00000000       0.00000000 </v>
   <v>       0.01020408       0.00000000       0.01020408 </v>
   <v>       0.02040816       0.00000000       0.02040816 </v>
   <v>       0.03061224       0.00000000       0.03061224 </v>
   <v>       0.04081633       0.00000000       0.04081633 </v>
   <v>       0.05102041       0.00000000       0.05102041 </v>
   <v>       0.06122449       0.00000000       0.06122449 </v>
   <v>       0.07142857       0.00000000       0.07142857 </v>
   <v>       0.08163265       0.00000000       0.08163265 </v>
   <v>       0.09183673       0.00000000       0.09183673 </v>
   <v>       0.10204082       0.00000000       0.10204082 </v>
   <v>       0.11224490       0.00000000       0.11224490 </v>
   <v>       0.12244898       0.00000000       0.12244898 </v>
   <v>       0.13265306       0.00000000       0.13265306 </v>
   <v>       0.14285714       0.00000000       0.14285714 </v>
   <v>       0.15306122       0.00000000       0.15306122 </v>
   <v>       0.16326531       0.00000000       0.16326531 </v>
   <v>       0.17346939       0.00000000       0.17346939 </v>
   <v>       0.18367347       0.00000000       0.18367347 </v>
   <v>       0.19387755       0.00000000       0.19387755 </v>
   <v>       0.20408163       0.00000000       0.20408163 </v>
   <v>       0.21428571       0.00000000       0.21428571 </v>
   <v>       0.22448980       0.00000000       0.22448980 </v>
   <v>       0.23469388       0.00000000       0.23469388 </v>
   <v>       0.24489796       0.00000000       0.24489796 </v>
   <v>       0.25510204       0.00000000       0.25510204 </v>
   <v>       0.26530612       0.00000000       0.26530612 </v>
   <v>       0.27551020       0.00000000       0.27551020 </v>
   <v>       0.28571429       0.00000000       0.28571429 </v>
   <v>       0.29591837       0.00000000       0.29591837 </v>
   <v>       0.30612245       0.00000000       0.30612245 </v>
   <v>       0.31632653       0.00000000       0.31632653 </v>
   <v>       0.32653061       0.00000000       0.32653061 </v>
   <v>       0.33673469       0.00000000       0.33673469 </v>
   <v>       0.34693878       0.00000000       0.34693878 </v>
   <v>       0.35714286       0.00000000       0.35714286 </v>
   <v>       0.36734694       0.00000000       0.36734694 </v>
   <v>       0.37755102       0.00000000       0.37755102 </v>
   <v>       0.38775510       0.00000000       0.38775510 </v>
   <v>       0.39795918       0.00000000       0.39795918 </v>
   <v>       0.40816327       0.00000000       0.40816327 </v>
   <v>       0.41836735       0.00000000       0.41836735 </v>
   <v>       0.42857143       0.00000000       0.42857143 </v>
   <v>       0.43877551       0.00000000       0.43877551 </v>
   <v>       0.44897959       0.00000000       0.44897959 </v>
   <v>       0.45918367       0.00000000       0.45918367 </v>
   <v>       0.46938776       0.00000000       0.46938776 </v>
   <v>       0.47959184       0.00000000       0.47959184 </v>
   <v>       0.48979592       0.00000000       0.48979592 </v>
   <v>       0.50000000       0.00000000       0.50000000 </v>
   <v>       0.50000000       0.00000000       0.50000000 </v>
   <v>       0.50255102       0.00510204       0.50255102 </v>
   <v>       0.50510204       0.01020408       0.50510204 </v>
   <v>       0.50765306       0.01530612       0.50765306 </v>
   <v>       0.51020408       0.02040816       0.51020408 </v>
   <v>       0.51275510       0.02551020       0.51275510 </v>
   <v>       0.51530612       0.03061224       0.51530612 </v>
   <v>       0.51785714       0.03571429       0.51785714 </v>
   <v>       0.52040816       0.04081633       0.52040816 </v>
   <v>       0.52295918       0.04591837       0.52295918 </v>
   <v>       0.52551020       0.05102041       0.52551020 </v>
   <v>       0.52806122       0.05612245       0.52806122 </v>
   <v>       0.53061224       0.06122449       0.53061224 </v>
   <v>       0.53316327       0.06632653       0.53316327 </v>
   <v>       0.53571429       0.07142857       0.53571429 </v>
   <v>       0.53826531       0.07653061       0.53826531 </v>
   <v>       0.54081633       0.08163265       0.54081633 </v>
   <v>       0.54336735       0.08673469       0.54336735 </v>
   <v>       0.54591837       0.09183673       0.54591837 </v>
   <v>       0.54846939       0.09693878       0.54846939 </v>
   <v>       0.55102041       0.10204082       0.55102041 </v>
   <v>       0.55357143       0.10714286       0.55357143 </v>
   <v>       0.55612245       0.11224490       0.55612245 </v>
   <v>       0.55867347       0.11734694       0.55867347 </v>
   <v>       0.56122449       0.12244898       0.56122449 </v>
   <v>       0.56377551       0.12755102       0.56377551 </v>
   <v>       0.56632653       0.13265306       0.56632653 </v>
   <v>       0.56887755       0.13775510       0.56887755 </v>
   <v>       0.57142857       0.14285714       0.57142857 </v>
   <v>       0.57397959       0.14795918       0.57397959 </v>
   <v>       0.57653061       0.15306122       0.57653061 </v>
   <v>       0.57908163       0.15816327       0.57908163 </v>
   <v>       0.58163265       0.16326531       0.58163265 </v>
   <v>       0.58418367       0.16836735       0.58418367 </v>
   <v>       0.58673469       0.17346939       0.58673469 </v>
   <v>       0.58928571       0.17857143       0.58928571 </v>
   <v>       0.59183673       0.18367347       0.59183673 </v>
   <v>       0.59438776       0.18877551       0.59438776 </v>
   <v>       0.59693878       0.19387755       0.59693878 </v>
   <v>       0.59948980       0.19897959       0.59948980 </v>
   <v>       0.60204082       0.20408163       0.60204082 </v>
   <v>       0.60459184       0.20918367       0.60459184 </v>
   <v>       0.60714286       0.21428571       0.60714286 </v>
   <v>       0.60969388       0.21938776       0.60969388 </v>
   <v>       0.61224490       0.22448980       0.61224490 </v>
   <v>       0.61479592       0.22959184       0.61479592 </v>
   <v>       0.61734694       0.23469388       0.61734694 </v>
   <v>       0.61989796       0.23979592       0.61989796 </v>
   <v>       0.62244898       0.24489796       0.62244898 </v>
   <v>       0.62500000       0.25000000       0.62500000 </v>
   <v>       0.37500000       0.37500000       0.75000000 </v>
   <v>       0.36734694       0.36734694       0.73469388 </v>
   <v>       0.35969388       0.35969388       0.71938776 </v>
   <v>       0.35204082       0.35204082       0.70408163 </v>
   <v>       0.34438776       0.34438776       0.68877551 </v>
   <v>       0.33673469       0.33673469       0.67346939 </v>
   <v>       0.32908163       0.32908163       0.65816327 </v>
   <v>       0.32142857       0.32142857       0.64285714 </v>
   <v>       0.31377551       0.31377551       0.62755102 </v>
   <v>       0.30612245       0.30612245       0.61224490 </v>
   <v>       0.29846939       0.29846939       0.59693878 </v>
   <v>       0.29081633       0.29081633       0.58163265 </v>
   <v>       0.28316327       0.28316327       0.56632653 </v>
   <v>       0.27551020       0.27551020       0.55102041 </v>
   <v>       0.26785714       0.26785714       0.53571429 </v>
   <v>       0.26020408       0.26020408       0.52040816 </v>
   <v>       0.25255102       0.25255102       0.50510204 </v>
   <v>       0.24489796       0.24489796       0.48979592 </v>
   <v>       0.23724490       0.23724490       0.47448980 </v>
   <v>       0.22959184       0.22959184       0.45918367 </v>
   <v>       0.22193878       0.22193878       0.44387755 </v>
   <v>       0.21428571       0.21428571       0.42857143 </v>
   <v>       0.20663265       0.20663265       0.41326531 </v>
   <v>       0.19897959       0.19897959       0.39795918 </v>
   <v>       0.19132653       0.19132653       0.38265306 </v>
   <v>       0.18367347       0.18367347       0.36734694 </v>
   <v>       0.17602041       0.17602041       0.35204082 </v>
   <v>       0.16836735       0.16836735       0.33673469 </v>
   <v>       0.16071429       0.16071429       0.32142857 </v>
   <v>       0.15306122       0.15306122       0.30612245 </v>
   <v>       0.14540816       0.14540816       0.29081633 </v>
   <v>       0.13775510       0.13775510       0.27551020 </v>
   <v>       0.13010204       0.13010204       0.26020408 </v>
   <v>       0.12244898       0.12244898       0.24489796 </v>
   <v>       0.11479592       0.11479592       0.22959184 </v>
   <v>       0.10714286       0.10714286       0.21428571 </v>
   <v>       0.09948980       0.09948980       0.19897959 </v>
   <v>       0.09183673       0.09183673       0.18367347 </v>
   <v>       0.08418367       0.08418367       0.16836735 </v>
   <v>       0.07653061       0.07653061       0.15306122 </v>
   <v>       0.06887755       0.06887755       0.13775510 </v>
   <v>       0.06122449       0.06122449       0.12244898 </v>
   <v>       0.05357143       0.05357143       0.10714286 </v>
   <v>       0.04591837       0.04591837       0.09183673 </v>
   <v>       0.03826531       0.03826531       0.07653061 </v>
   <v>       0.03061224       0.03061224       0.06122449 </v>
   <v>       0.02295918       0.02295918       0.04591837 </v>
   <v>       0.01530612       0.01530612       0.03061224 </v>
   <v>       0.00765306       0.00765306       0.01530612 </v>
   <v>       0.00000000       0.00000000       0.00000000 </v>
   <v>       0.00000000       0.00000000       0.00000000 </v>
   <v>       0.01020408       0.01020408       0.01020408 </v>
   <v>       0.02040816       0.02040816       0.02040816 </v>
   <v>       0.03061224       0.03061224       0.03061224 </v>
   <v>       0.04081633       0.04081633       0.04081633 </v>
   <v>       0.05102041       0.05102041       0.05102041 </v>
   <v>       0.06122449       0.06122449       0.06122449 </v>
   <v>       0.07142857       0.07142857       0.07142857 </v>
   <v>       0.08163265       0.08163265       0.08163265 </v>
   <v>       0.09183673       0.09183673       0.09183673 </v>
   <v>       0.10204082       0.10204082       0.10204082 </v>
   <v>       0.11224490       0.11224490       0.11224490 </v>
   <v>       0.12244898       0.12244898       0.12244898 </v>
   <v>       0.13265306       0.13265306       0.13265306 </v>
   <v>       0.14285714       0.14285714       0.14285714 </v>
   <v>       0.15306122       0.15306122       0.15306122 </v>
   <v>       0.16326531       0.16326531       0.16326531 </v>
   <v>       0.17346939       0.17346939       0.17346939 </v>
   <v>       0.18367347       0.18367347       0.18367347 </v>
   <v>       0.19387755       0.19387755       0.19387755 </v>
   <v>       0.20408163       0.20408163       0.20408163 </v>
   <v>       0.21428571       0.21428571       0.21428571 </v>
   <v>       0.22448980       0.22448980       0.22448980 </v>
   <v>       0.23469388       0.23469388       0.23469388 </v>
   <v>       0.24489796       0.24489796       0.24489796 </v>
   <v>       0.25510204       0.25510204       0.25510204 </v>
   <v>       0.26530612       0.26530612       0.26530612 </v>
   <v>       0.27551020       0.27551020       0.27551020 </v>
   <v>       0.28571429       0.28571429       0.28571429 </v>
   <v>       0.29591837       0.29591837       0.29591837 </v>
   <v>       0.30612245       0.30612245       0.30612245 </v>
   <v>       0.31632653       0.31632653       0.31632653 </v>
   <v>       0.32653061       0.32653061       0.32653061 </v>
   <v>       0.33673469       0.33673469       0.33673469 </v>
   <v>       0.34693878       0.34693878       0.34693878 </v>
   <v>       0.35714286       0.35714286       0.35714286 </v>
   <v>       0.36734694       0.36734694       0.36734694 </v>
   <v>       0.37755102       0.37755102       0.37755102 </v>
   <v>       0.38775510       0.38775510       0.38775510 </v>
   <v>       0.39795918       0.39795918       0.39795918 </v>
   <v>       0.40816327       0.40816327       0.40816327 </v>
   <v>       0.41836735       0.41836735       0.41836735 </v>
   <v>       0.42857143       0.42857143       0.42857143 </v>
   <v>       0.43877551       0.43877551       0.43877551 </v>
   <v>       0.44897959       0.44897959       0.44897959 </v>
   <v>       0.45918367       0.45918367       0.45918367 </v>
   <v>       0.46938776       0.46938776       0.46938776 </v>
   <v>       0.47959184       0.47959184       0.47959184 </v>
   <v>       0.48979592       0.48979592       0.48979592 </v>
   <v>       0.50000000       0.50000000       0.50000000 </v>
   <v>       0.50000000       0.50000000       0.50000000 </v>
   <v>       0.50000000       0.49489796       0.50510204 </v>
   <v>       0.50000000       0.48979592       0.51020408 </v>
   <v>       0.50000000       0.48469388       0.51530612 </v>
   <v>       0.50000000       0.47959184       0.52040816 </v>
   <v>       0.50000000       0.47448980       0.52551020 </v>
   <v>       0.50000000       0.46938776       0.53061224 </v>
   <v>       0.50000000       0.46428571       0.53571429 </v>
   <v>       0.50000000       0.45918367       0.54081633 </v>
   <v>       0.50000000       0.45408163       0.54591837 </v>
   <v>       0.50000000       0.44897959       0.55102041 </v>
   <v>       0.50000000       0.44387755       0.55612245 </v>
   <v>       0.50000000       0.43877551       0.56122449 </v>
   <v>       0.50000000       0.43367347       0.56632653 </v>
   <v>       0.50000000       0.42857143       0.57142857 </v>
   <v>       0.50000000       0.42346939       0.57653061 </v>
   <v>       0.50000000       0.41836735       0.58163265 </v>
   <v>       0.50000000       0.41326531       0.58673469 </v>
   <v>       0.50000000       0.40816327       0.59183673 </v>
   <v>       0.50000000       0.40306122       0.59693878 </v>
   <v>       0.50000000       0.39795918       0.60204082 </v>
   <v>       0.50000000       0.39285714       0.60714286 </v>
   <v>       0.50000000       0.38775510       0.61224490 </v>
   <v>       0.50000000       0.38265306       0.61734694 </v>
   <v>       0.50000000       0.37755102       0.62244898 </v>
   <v>       0.50000000       0.37244898       0.62755102 </v>
   <v>       0.50000000       0.36734694       0.63265306 </v>
   <v>       0.50000000       0.36224490       0.63775510 </v>
   <v>       0.50000000       0.35714286       0.64285714 </v>
   <v>       0.50000000       0.35204082       0.64795918 </v>
   <v>       0.50000000       0.34693878       0.65306122 </v>
   <v>       0.50000000       0.34183673       0.65816327 </v>
   <v>       0.50000000       0.33673469       0.66326531 </v>
   <v>       0.50000000       0.33163265       0.66836735 </v>
   <v>       0.50000000       0.32653061       0.67346939 </v>
   <v>       0.50000000       0.32142857       0.67857143 </v>
   <v>       0.50000000       0.31632653       0.68367347 </v>
   <v>       0.50000000       0.31122449       0.68877551 </v>
   <v>       0.50000000       0.30612245       0.69387755 </v>
   <v>       0.50000000       0.30102041       0.69897959 </v>
   <v>       0.50000000       0.29591837       0.70408163 </v>
   <v>       0.50000000       0.29081633       0.70918367 </v>
   <v>       0.50000000       0.28571429       0.71428571 </v>
   <v>       0.50000000       0.28061224       0.71938776 </v>
   <v>       0.50000000       0.27551020       0.72448980 </v>
   <v>       0.50000000       0.27040816       0.72959184 </v>
   <v>       0.50000000       0.26530612       0.73469388 </v>
   <v>       0.50000000       0.26020408       0.73979592 </v>
   <v>       0.50000000       0.25510204       0.74489796 </v>
   <v>       0.50000000       0.25000000       0.75000000 </v>
   <v>       0.50000000       0.25000000       0.75000000 </v>
   <v>       0.50000000       0.24489796       0.74489796 </v>
   <v>       0.50000000       0.23979592       0.73979592 </v>
   <v>       0.50000000       0.23469388       0.73469388 </v>
   <v>       0.50000000       0.22959184       0.72959184 </v>
   <v>       0.50000000       0.22448980       0.72448980 </v>
   <v>       0.50000000       0.21938776       0.71938776 </v>
   <v>       0.50000000       0.21428571       0.71428571 </v>
   <v>       0.50000000       0.20918367       0.70918367 </v>
   <v>       0.50000000       0.20408163       0.70408163 </v>
   <v>       0.50000000       0.19897959       0.69897959 </v>
   <v>       0.50000000       0.19387755       0.69387755 </v>
   <v>       0.50000000       0.18877551       0.68877551 </v>
   <v>       0.50000000       0.18367347       0.68367347 </v>
   <v>       0.50000000       0.17857143       0.67857143 </v>
   <v>       0.50000000       0.17346939       0.67346939 </v>
   <v>       0.50000000       0.16836735       0.66836735 </v>
   <v>       0.50000000       0.16326531       0.66326531 </v>
   <v>       0.50000000       0.15816327       0.65816327 </v>
   <v>       0.50000000       0.15306122       0.65306122 </v>
   <v>       0.50000000       0.14795918       0.64795918 </v>
   <v>       0.50000000       0.14285714       0.64285714 </v>
   <v>       0.50000000       0.13775510       0.63775510 </v>
   <v>       0.50000000       0.13265306       0.63265306 </v>
   <v>       0.50000000       0.12755102       0.62755102 </v>
   <v>       0.50000000       0.12244898       0.62244898 </v>
   <v>       0.50000000       0.11734694       0.61734694 </v>
   <v>       0.50000000       0.11224490       0.61224490 </v>
   <v>       0.50000000       0.10714286       0.60714286 </v>
   <v>       0.50000000       0.10204082       0.60204082 </v>
   <v>       0.50000000       0.09693878       0.59693878 </v>
   <v>       0.50000000       0.09183673       0.59183673 </v>
   <v>       0.50000000       0.08673469       0.58673469 </v>
   <v>       0.50000000       0.08163265       0.58163265 </v>
   <v>       0.50000000       0.07653061       0.57653061 </v>
   <v>       0.50000000       0.07142857       0.57142857 </v>
   <v>       0.50000000       0.06632653       0.56632653 </v>
   <v>       0.50000000       0.06122449       0.56122449 </v>
   <v>       0.50000000       0.05612245       0.55612245 </v>
   <v>       0.50000000       0.05102041       0.55102041 </v>
   <v>       0.50000000       0.04591837       0.54591837 </v>
   <v>       0.50000000       0.04081633       0.54081633 </v>
   <v>       0.50000000       0.03571429       0.53571429 </v>
   <v>       0.50000000       0.03061224       0.53061224 </v>
   <v>       0.50000000       0.02551020       0.52551020 </v>
   <v>       0.50000000       0.02040816       0.52040816 </v>
   <v>       0.50000000       0.01530612       0.51530612 </v>
   <v>       0.50000000       0.01020408       0.51020408 </v>
   <v>       0.50000000       0.00510204       0.50510204 </v>
   <v>       0.50000000       0.00000000       0.50000000 </v>
  </varray>
  <varray name="weights" >
   <v>       0.00333333 </v>
   <v>       0.00333333 </v>
   <v>       0.00333333 </v>
   <v>       0.00333333 </v>
   <v>       0.00333333 </v>
   <v>       0.00333333 </v>
   <v>       0.00333333 </v>
   <v>       0.00333333 </v>
   <v>       0.00333333 </v>
   <v>       0.00333333 </v>
   <v>       0.00333333 </v>
   <v>       0.00333333 </v>
   <v>       0.00333333 </v>
   <v>       0.00333333 </v>
   <v>       0.00333333 </v>
   <v>       0.00333333 </v>
   <v>       0.00333333 </v>
   <v>       0.00333333 </v>
   <v>       0.00333333 </v>
   <v>       0.00333333 </v>
   <v>       0.00333333 </v>
   <v>       0.00333333 </v>
   <v>       0.00333333 </v>
   <v>       0.00333333 </v>
   <v>       0.00333333 </v>
   <v>       0.00333333 </v>
   <v>       0.00333333 </v>
   <v>       0.00333333 </v>
   <v>       0.00333333 </v>
   <v>       0.00333333 </v>
   <v>       0.00333333 </v>
   <v>       0.00333333 </v>
   <v>       0.00333333 </v>
   <v>       0.00333333 </v>
   <v>       0.00333333 </v>
   <v>       0.00333333 </v>
   <v>       0.00333333 </v>
   <v>       0.00333333 </v>
   <v>       0.00333333 </v>
   <v>       0.00333333 </v>
   <v>       0.00333333 </v>
   <v>       0.00333333 </v>
   <v>       0.00333333 </v>
   <v>       0.00333333 </v>
   <v>       0.00333333 </v>
   <v>       0.00333333 </v>
   <v>       0.00333333 </v>
   <v>       0.00333333 </v>
   <v>       0.00333333 </v>
   <v>       0.00333333 </v>
   <v>       0.00333333 </v>
   <v>       0.00333333 </v>
   <v>       0.00333333 </v>
   <v>       0.00333333 </v>
   <v>       0.00333333 </v>
   <v>       0.00333333 </v>
   <v>       0.00333333 </v>
   <v>       0.00333333 </v>
   <v>       0.00333333 </v>
   <v>       0.00333333 </v>
   <v>       0.00333333 </v>
   <v>       0.00333333 </v>
   <v>       0.00333333 </v>
   <v>       0.00333333 </v>
   <v>       0.00333333 </v>
   <v>       0.00333333 </v>
   <v>       0.00333333 </v>
   <v>       0.00333333 </v>
   <v>       0.00333333 </v>
   <v>       0.00333333 </v>
   <v>       0.00333333 </v>
   <v>       0.00333333 </v>
   <v>       0.00333333 </v>
   <v>       0.00333333 </v>
   <v>       0.00333333 </v>
   <v>       0.00333333 </v>
   <v>       0.00333333 </v>
   <v>       0.00333333 </v>
   <v>       0.00333333 </v>
   <v>       0.00333333 </v>
   <v>       0.00333333 </v>
   <v>       0.00333333 </v>
   <v>       0.00333333 </v>
   <v>       0.00333333 </v>
   <v>       0.00333333 </v>
   <v>       0.00333333 </v>
   <v>       0.00333333 </v>
   <v>       0.00333333 </v>
   <v>       0.00333333 </v>
   <v>       0.00333333 </v>
   <v>       0.00333333 </v>
   <v>       0.00333333 </v>
   <v>       0.00333333 </v>
   <v>       0.00333333 </v>
   <v>       0.00333333 </v>
   <v>       0.00333333 </v>
   <v>       0.00333333 </v>
   <v>       0.00333333 </v>
   <v>       0.00333333 </v>
   <v>       0.00333333 </v>
   <v>       0.00333333 </v>
   <v>       0.00333333 </v>
   <v>       0.00333333 </v>
   <v>       0.00333333 </v>
   <v>       0.00333333 </v>
   <v>       0.00333333 </v>
   <v>       0.00333333 </v>
   <v>       0.00333333 </v>
   <v>       0.00333333 </v>
   <v>       0.00333333 </v>
   <v>       0.00333333 </v>
   <v>       0.00333333 </v>
   <v>       0.00333333 </v>
   <v>       0.00333333 </v>
   <v>       0.00333333 </v>
   <v>       0.00333333 </v>
   <v>       0.00333333 </v>
   <v>       0.00333333 </v>
   <v>       0.00333333 </v>
   <v>       0.00333333 </v>
   <v>       0.00333333 </v>
   <v>       0.00333333 </v>
   <v>       0.00333333 </v>
   <v>       0.00333333 </v>
   <v>       0.00333333 </v>
   <v>       0.00333333 </v>
   <v>       0.00333333 </v>
   <v>       0.00333333 </v>
   <v>       0.00333333 </v>
   <v>       0.00333333 </v>
   <v>       0.00333333 </v>
   <v>       0.00333333 </v>
   <v>       0.00333333 </v>
   <v>       0.00333333 </v>
   <v>       0.00333333 </v>
   <v>       0.00333333 </v>
   <v>       0.00333333 </v>
   <v>       0.00333333 </v>
   <v>       0.00333333 </v>
   <v>       0.00333333 </v>
   <v>       0.00333333 </v>
   <v>       0.00333333 </v>
   <v>       0.00333333 </v>
   <v>       0.00333333 </v>
   <v>       0.00333333 </v>
   <v>       0.00333333 </v>
   <v>       0.00333333 </v>
   <v>       0.00333333 </v>
   <v>       0.00333333 </v>
   <v>       0.00333333 </v>
   <v>       0.00333333 </v>
   <v>       0.00333333 </v>
   <v>       0.00333333 </v>
   <v>       0.00333333 </v>
   <v>       0.00333333 </v>
   <v>       0.00333333 </v>
   <v>       0.00333333 </v>
   <v>       0.00333333 </v>
   <v>       0.00333333 </v>
   <v>       0.00333333 </v>
   <v>       0.00333333 </v>
   <v>       0.00333333 </v>
   <v>       0.00333333 </v>
   <v>       0.00333333 </v>
   <v>       0.00333333 </v>
   <v>       0.00333333 </v>
   <v>       0.00333333 </v>
   <v>       0.00333333 </v>
   <v>       0.00333333 </v>
   <v>       0.00333333 </v>
   <v>       0.00333333 </v>
   <v>       0.00333333 </v>
   <v>       0.00333333 </v>
   <v>       0.00333333 </v>
   <v>       0.00333333 </v>
   <v>       0.00333333 </v>
   <v>       0.00333333 </v>
   <v>       0.00333333 </v>
   <v>       0.00333333 </v>
   <v>       0.00333333 </v>
   <v>       0.00333333 </v>
   <v>       0.00333333 </v>
   <v>       0.00333333 </v>
   <v>       0.00333333 </v>
   <v>       0.00333333 </v>
   <v>       0.00333333 </v>
   <v>       0.00333333 </v>
   <v>       0.00333333 </v>
   <v>       0.00333333 </v>
   <v>       0.00333333 </v>
   <v>       0.00333333 </v>
   <v>       0.00333333 </v>
   <v>       0.00333333 </v>
   <v>       0.00333333 </v>
   <v>       0.00333333 </v>
   <v>       0.00333333 </v>
   <v>       0.00333333 </v>
   <v>       0.00333333 </v>
   <v>       0.00333333 </v>
   <v>       0.00333333 </v>
   <v>       0.00333333 </v>
   <v>       0.00333333 </v>
   <v>       0.00333333 </v>
   <v>       0.00333333 </v>
   <v>       0.00333333 </v>
   <v>       0.00333333 </v>
   <v>       0.00333333 </v>
   <v>       0.00333333 </v>
   <v>       0.00333333 </v>
   <v>       0.00333333 </v>
   <v>       0.00333333 </v>
   <v>       0.00333333 </v>
   <v>       0.00333333 </v>
   <v>       0.00333333 </v>
   <v>       0.00333333 </v>
   <v>       0.00333333 </v>
   <v>       0.00333333 </v>
   <v>       0.00333333 </v>
   <v>       0.00333333 </v>
   <v>       0.00333333 </v>
   <v>       0.00333333 </v>
   <v>       0.00333333 </v>
   <v>       0.00333333 </v>
   <v>       0.00333333 </v>
   <v>       0.00333333 </v>
   <v>       0.00333333 </v>
   <v>       0.00333333 </v>
   <v>       0.00333333 </v>
   <v>       0.00333333 </v>
   <v>       0.00333333 </v>
   <v>       0.00333333 </v>
   <v>       0.00333333 </v>
   <v>       0.00333333 </v>
   <v>       0.00333333 </v>
   <v>       0.00333333 </v>
   <v>       0.00333333 </v>
   <v>       0.00333333 </v>
   <v>       0.00333333 </v>
   <v>       0.00333333 </v>
   <v>       0.00333333 </v>
   <v>       0.00333333 </v>
   <v>       0.00333333 </v>
   <v>       0.00333333 </v>
   <v>       0.00333333 </v>
   <v>       0.00333333 </v>
   <v>       0.00333333 </v>
   <v>       0.00333333 </v>
   <v>       0.00333333 </v>
   <v>       0.00333333 </v>
   <v>       0.00333333 </v>
   <v>       0.00333333 </v>
   <v>       0.00333333 </v>
   <v>       0.00333333 </v>
   <v>       0.00333333 </v>
   <v>       0.00333333 </v>
   <v>       0.00333333 </v>
   <v>       0.00333333 </v>
   <v>       0.00333333 </v>
   <v>       0.00333333 </v>
   <v>       0.00333333 </v>
   <v>       0.00333333 </v>
   <v>       0.00333333 </v>
   <v>       0.00333333 </v>
   <v>       0.00333333 </v>
   <v>       0.00333333 </v>
   <v>       0.00333333 </v>
   <v>       0.00333333 </v>
   <v>       0.00333333 </v>
   <v>       0.00333333 </v>
   <v>       0.00333333 </v>
   <v>       0.00333333 </v>
   <v>       0.00333333 </v>
   <v>       0.00333333 </v>
   <v>       0.00333333 </v>
   <v>       0.00333333 </v>
   <v>       0.00333333 </v>
   <v>       0.00333333 </v>
   <v>       0.00333333 </v>
   <v>       0.00333333 </v>
   <v>       0.00333333 </v>
   <v>       0.00333333 </v>
   <v>       0.00333333 </v>
   <v>       0.00333333 </v>
   <v>       0.00333333 </v>
   <v>       0.00333333 </v>
   <v>       0.00333333 </v>
   <v>       0.00333333 </v>
   <v>       0.00333333 </v>
   <v>       0.00333333 </v>
   <v>       0.00333333 </v>
   <v>       0.00333333 </v>
   <v>       0.00333333 </v>
   <v>       0.00333333 </v>
   <v>       0.00333333 </v>
   <v>       0.00333333 </v>
   <v>       0.00333333 </v>
   <v>       0.00333333 </v>
   <v>       0.00333333 </v>
   <v>       0.00333333 </v>
   <v>       0.00333333 </v>
  </varray>
 </kpoints>
 <parameters>
  <separator name="general" >
   <i type="string" name="SYSTEM">Carbon Diamond (band)</i>
   <i type="logical" name="LCOMPAT"> F  </i>
  </separator>
  <separator name="electronic" >
   <i type="string" name="PREC">accura</i>
   <i name="ENMAX">    500.00000000</i>
   <i name="ENAUG">    946.76800000</i>
   <i name="EDIFF">      0.00001000</i>
   <i type="int" name="IALGO">    38</i>
   <i type="int" name="IWAVPR">    10</i>
   <i type="int" name="NBANDS">    12</i>
   <i name="NELECT">      8.00000000</i>
   <i type="int" name="TURBO">     0</i>
   <i type="int" name="IRESTART">     0</i>
   <i type="int" name="NREBOOT">     0</i>
   <i type="int" name="NMIN">     0</i>
   <i name="EREF">      0.00000000</i>
   <separator name="electronic smearing" >
    <i type="int" name="ISMEAR">     0</i>
    <i name="SIGMA">      0.10000000</i>
    <i name="KSPACING">      0.50000000</i>
    <i type="logical" name="KGAMMA"> T  </i>
   </separator>
   <separator name="electronic projectors" >
    <i type="logical" name="LREAL"> F  </i>
    <v name="ROPT">      0.00000000</v>
    <i type="int" name="LMAXPAW">  -100</i>
    <i type="int" name="LMAXMIX">     2</i>
    <i type="logical" name="NLSPLINE"> F  </i>
   </separator>
   <separator name="electronic startup" >
    <i type="int" name="ISTART">     0</i>
    <i type="int" name="ICHARG">    11</i>
    <i type="int" name="INIWAV">     1</i>
   </separator>
   <separator name="electronic spin" >
    <i type="int" name="ISPIN">     2</i>
    <i type="logical" name="LNONCOLLINEAR"> F  </i>
    <v name="MAGMOM">      1.00000000      1.00000000</v>
    <i name="NUPDOWN">     -1.00000000</i>
    <i type="logical" name="LSORBIT"> F  </i>
    <v name="SAXIS">      0.00000000      0.00000000      1.00000000</v>
    <i type="logical" name="LSPIRAL"> F  </i>
    <v name="QSPIRAL">      0.00000000      0.00000000      0.00000000</v>
    <i type="logical" name="LZEROZ"> F  </i>
   </separator>
   <separator name="electronic exchange-correlation" >
    <i type="logical" name="LASPH"> T  </i>
    <i type="logical" name="LMETAGGA"> F  </i>
   </separator>
   <separator name="electronic convergence" >
    <i type="int" name="NELM">   100</i>
    <i type="int" name="NELMDL">    -5</i>
    <i type="int" name="NELMIN">     2</i>
    <i name="ENINI">    500.00000000</i>
    <separator name="electronic convergence detail" >
     <i type="logical" name="LDIAG"> T  </i>
     <i type="logical" name="LSUBROT"> T  </i>
     <i name="WEIMIN">      0.00000000</i>
     <i name="EBREAK">      0.00000021</i>
     <i name="DEPER">      0.30000000</i>
     <i type="int" name="NRMM">     4</i>
     <i name="TIME">      0.40000000</i>
    </separator>
   </separator>
   <separator name="electronic mixer" >
    <i name="AMIX">      0.40000000</i>
    <i name="BMIX">      1.00000000</i>
    <i name="AMIN">      0.10000000</i>
    <i name="AMIX_MAG">      1.60000000</i>
    <i name="BMIX_MAG">      1.00000000</i>
    <separator name="electronic mixer details" >
     <i type="int" name="IMIX">     4</i>
     <i type="int" name="MAXMIX">   -45</i>
     <i name="WC">    100.00000000</i>
     <i type="int" name="INIMIX">     1</i>
     <i type="int" name="MIXPRE">     1</i>
     <i type="int" name="MREMOVE">     5</i>
    </separator>
   </separator>
   <separator name="electronic dipolcorrection" >
    <i type="logical" name="LDIPOL"> F  </i>
    <i type="logical" name="LMONO"> F  </i>
    <i type="int" name="IDIPOL">     0</i>
    <i name="EPSILON">      1.00000000</i>
    <v name="DIPOL">   -100.00000000   -100.00000000   -100.00000000</v>
    <i name="EFIELD">      0.00000000</i>
   </separator>
  </separator>
  <separator name="grids" >
   <i type="int" name="NGX">    18</i>
   <i type="int" name="NGY">    18</i>
   <i type="int" name="NGZ">    18</i>
   <i type="int" name="NGXF">    36</i>
   <i type="int" name="NGYF">    36</i>
   <i type="int" name="NGZF">    36</i>
   <i type="logical" name="ADDGRID"> F  </i>
  </separator>
  <separator name="ionic" >
   <i type="int" name="NSW">     0</i>
   <i type="int" name="IBRION">    -1</i>
   <i type="int" name="ISIF">     3</i>
   <i name="PSTRESS">      0.00000000</i>
   <i name="EDIFFG">     -0.01000000</i>
   <i type="int" name="NFREE">     0</i>
   <i name="POTIM">      0.50000000</i>
   <i name="SMASS">     -3.00000000</i>
   <i name="SCALEE">      1.00000000</i>
  </separator>
  <separator name="ionic md" >
   <i name="TEBEG">      0.00010000</i>
   <i name="TEEND">      0.00010000</i>
   <i type="int" name="NBLOCK">     1</i>
   <i type="int" name="KBLOCK">     1</i>
   <i type="int" name="NPACO">   256</i>
   <i name="APACO">     16.00000000</i>
  </separator>
  <separator name="symmetry" >
   <i type="int" name="ISYM">     2</i>
   <i name="SYMPREC">      0.00001000</i>
  </separator>
  <separator name="dos" >
   <i type="logical" name="LORBIT"> F  </i>
   <v name="RWIGS">     -1.00000000</v>
   <i type="int" name="NEDOS">   301</i>
   <i name="EMIN">     10.00000000</i>
   <i name="EMAX">    -10.00000000</i>
   <i name="EFERMI">      0.00000000</i>
  </separator>
  <separator name="writing" >
   <i type="int" name="NWRITE">     2</i>
   <i type="logical" name="LWAVE"> T  </i>
   <i type="logical" name="LCHARG"> T  </i>
   <i type="logical" name="LPARD"> F  </i>
   <i type="logical" name="LVTOT"> T  </i>
   <i type="logical" name="LVHAR"> F  </i>
   <i type="logical" name="LELF"> T  </i>
   <i type="logical" name="LOPTICS"> F  </i>
   <v name="STM">      0.00000000      0.00000000      0.00000000      0.00000000      0.00000000      0.00000000      0.00000000</v>
  </separator>
  <separator name="performance" >
   <i type="int" name="NPAR">     4</i>
   <i type="int" name="NSIM">     1</i>
   <i type="int" name="NBLK">    -1</i>
   <i type="logical" name="LPLANE"> F  </i>
   <i type="logical" name="LSCALAPACK"> T  </i>
   <i type="logical" name="LSCAAWARE"> F  </i>
   <i type="logical" name="LSCALU"> F  </i>
   <i type="logical" name="LASYNC"> F  </i>
   <i type="logical" name="LORBITALREAL"> F  </i>
  </separator>
  <separator name="miscellaneous" >
   <i type="int" name="IDIOT">     3</i>
   <i type="logical" name="LMUSIC"> F  </i>
   <v name="POMASS">     12.01100000</v>
   <v name="DARWINR">      0.00000000</v>
   <v name="DARWINV">      1.00000000</v>
   <i type="logical" name="LCORR"> T  </i>
  </separator>
  <i type="logical" name="GGA_COMPAT"> T  </i>
  <i type="logical" name="LBERRY"> F  </i>
  <i type="int" name="ICORELEVEL">     0</i>
  <i type="logical" name="LDAU"> F  </i>
  <i type="int" name="I_CONSTRAINED_M">     0</i>
  <separator name="electronic exchange-correlation" >
   <i type="string" name="GGA">--</i>
   <i type="int" name="VOSKOWN">     0</i>
   <i type="logical" name="LHFCALC"> F  </i>
   <i type="string" name="PRECFOCK"></i>
   <i type="logical" name="LSYMGRAD"> F  </i>
   <i type="logical" name="LHFONE"> F  </i>
   <i type="logical" name="LRHFCALC"> F  </i>
   <i type="logical" name="LTHOMAS"> F  </i>
   <i type="logical" name="LMODELHF"> F  </i>
   <i name="ENCUT4O">     -1.00000000</i>
   <i type="int" name="EXXOEP">     0</i>
   <i type="int" name="FOURORBIT">     0</i>
   <i name="AEXX">      0.00000000</i>
   <i name="HFALPHA">      0.00000000</i>
   <i name="MCALPHA">      0.00000000</i>
   <i name="ALDAX">      1.00000000</i>
   <i name="AGGAX">      1.00000000</i>
   <i name="ALDAC">      1.00000000</i>
   <i name="AGGAC">      1.00000000</i>
   <i type="int" name="NKREDX">     1</i>
   <i type="int" name="NKREDY">     1</i>
   <i type="int" name="NKREDZ">     1</i>
   <i type="logical" name="SHIFTRED"> F  </i>
   <i type="logical" name="ODDONLY"> F  </i>
   <i type="logical" name="EVENONLY"> F  </i>
   <i type="int" name="LMAXFOCK">     0</i>
   <i type="int" name="NMAXFOCKAE">     0</i>
   <i type="logical" name="LFOCKAEDFT"> F  </i>
   <i name="HFSCREEN">      0.00000000</i>
   <i name="HFSCREENC">      0.00000000</i>
   <i type="int" name="NBANDSGWLOW">     0</i>
  </separator>
  <separator name="vdW DFT" >
   <i type="logical" name="LUSE_VDW"> F  </i>
   <i name="Zab_VDW">     -0.84910000</i>
   <i name="PARAM1">      0.12340000</i>
   <i name="PARAM2">      1.00000000</i>
   <i name="PARAM3">      0.00000000</i>
  </separator>
  <separator name="model GW" >
   <i type="int" name="MODEL_GW">     0</i>
   <i name="MODEL_EPS0">      3.20171192</i>
   <i name="MODEL_ALPHA">      1.00000000</i>
  </separator>
  <separator name="linear response parameters" >
   <i type="logical" name="LEPSILON"> F  </i>
   <i type="logical" name="LRPA"> F  </i>
   <i type="logical" name="LNABLA"> F  </i>
   <i type="logical" name="LVEL"> F  </i>
   <i type="int" name="KINTER">     0</i>
   <i name="CSHIFT">      0.10000000</i>
   <i name="OMEGAMAX">     -1.00000000</i>
   <i name="DEG_THRESHOLD">      0.00200000</i>
  </separator>
  <separator name="orbital magnetization" >
   <i type="logical" name="NUCIND"> F  </i>
   <v name="MAGPOS">      0.00000000      0.00000000      0.00000000</v>
   <i type="logical" name="LNICSALL"> T  </i>
   <i type="logical" name="ORBITALMAG"> F  </i>
   <i type="logical" name="LMAGBLOCH"> F  </i>
   <i type="logical" name="LCHIMAG"> F  </i>
   <i type="logical" name="LGAUGE"> T  </i>
   <i type="int" name="MAGATOM">     0</i>
   <v name="MAGDIPOL">      0.00000000      0.00000000      0.00000000</v>
   <v name="AVECCONST">      0.00000000      0.00000000      0.00000000</v>
  </separator>
  <separator name="response functions" >
   <i type="logical" name="LADDER"> F  </i>
   <i type="logical" name="LFXC"> F  </i>
   <i type="logical" name="LHARTREE"> T  </i>
   <i type="int" name="IBSE">     0</i>
   <i type="logical" name="LTCTE"> F  </i>
   <i type="logical" name="LTETE"> F  </i>
   <i type="logical" name="LTRIPLET"> F  </i>
   <i type="logical" name="LFXCEPS"> F  </i>
   <i type="logical" name="L2ORDER"> F  </i>
   <i type="logical" name="LUSEW"> F  </i>
   <i name="ENCUTGW">     -2.00000000</i>
   <i name="ENCUTGWSOFT">     -2.00000000</i>
   <i name="ENCUTLF">     -1.00000000</i>
   <i type="int" name="LMAXMP2">    -1</i>
   <i name="SCISSOR">      0.00000000</i>
   <i type="int" name="NOMEGA">     0</i>
   <i type="int" name="NOMEGAR">     0</i>
   <i type="int" name="NBANDSGW">    -1</i>
   <i type="int" name="NBANDSO">    -1</i>
   <i type="int" name="NBANDSV">    -1</i>
   <i type="int" name="NELM">   100</i>
   <i type="int" name="DIM">     3</i>
   <i type="int" name="ANTIRES">     0</i>
   <i name="OMEGAMAX">    -30.00000000</i>
   <i name="OMEGATL">   -200.00000000</i>
   <i type="int" name="OMEGAGRID">     0</i>
   <i name="CSHIFT">     -0.10000000</i>
   <i type="logical" name="SELFENERGY"> F  </i>
   <i type="logical" name="LSPECTRAL"> F  </i>
   <i type="logical" name="ODDONLYGW"> F  </i>
   <i type="logical" name="EVENONLYGW"> F  </i>
   <i type="int" name="NKREDLFX">     1</i>
   <i type="int" name="NKREDLFY">     1</i>
   <i type="int" name="NKREDLFZ">     1</i>
   <i type="int" name="MAXMEM">  1800</i>
   <i type="int" name="TELESCOPE">     0</i>
  </separator>
 </parameters>
 <atominfo>
  <atoms>       2 </atoms>
  <types>       1 </types>
  <array name="atoms" >
   <dimension dim="1">ion</dimension>
   <field type="string">element</field>
   <field type="int">atomtype</field>
   <set>
    <rc><c>C </c><c>   1</c></rc>
    <rc><c>C </c><c>   1</c></rc>
   </set>
  </array>
  <array name="atomtypes" >
   <dimension dim="1">type</dimension>
   <field type="int">atomspertype</field>
   <field type="string">element</field>
   <field>mass</field>
   <field>valence</field>
   <field type="string">pseudopotential</field>
   <set>
    <rc><c>   2</c><c>C </c><c>     12.01100000</c><c>      4.00000000</c><c>  PAW_PBE C_h 06Feb2004                 </c></rc>
   </set>
  </array>
 </atominfo>
 <structure name="initialpos" >
  <crystal>
   <varray name="basis" >
    <v>       0.00000000       1.74747244       1.74747244 </v>
    <v>       1.74747244       0.00000000       1.74747244 </v>
    <v>       1.74747244       1.74747244       0.00000000 </v>
   </varray>
   <i name="volume">     10.67237307 </i>
   <varray name="rec_basis" >
    <v>      -0.28612755       0.28612755       0.28612755 </v>
    <v>       0.28612755      -0.28612755       0.28612755 </v>
    <v>       0.28612755       0.28612755      -0.28612755 </v>
   </varray>
  </crystal>
  <varray name="positions" >
   <v>       0.00000000       0.00000000       0.00000000 </v>
   <v>       0.25000000       0.25000000       0.25000000 </v>
  </varray>
 </structure>
 <calculation>
  <scstep>
   <time name="dav">    3.39    3.39</time>
   <time name="total">    3.62    3.63</time>
   <energy>
    <i name="alphaZ">     20.54678699 </i>
    <i name="ewald">   -355.11288034 </i>
    <i name="hartreedc">    -25.24001257 </i>
    <i name="XCdc">     16.85960949 </i>
    <i name="pawpsdc">  15495.12568061 </i>
    <i name="pawaedc"> -15484.71925874 </i>
    <i name="eentropy">     -0.00229408 </i>
    <i name="bandstr">     52.49185396 </i>
    <i name="atom">    293.79474529 </i>
    <i name="e_fr_energy">     13.74423060 </i>
    <i name="e_wo_entrp">     13.74652468 </i>
    <i name="e_0_energy">     13.74537764 </i>
   </energy>
  </scstep>
  <scstep>
   <time name="dav">    3.90    3.90</time>
   <time name="total">    3.90    3.91</time>
   <energy>
    <i name="e_fr_energy">    -14.16022566 </i>
    <i name="e_wo_entrp">    -14.16022566 </i>
    <i name="e_0_energy">    -14.16022566 </i>
   </energy>
  </scstep>
  <scstep>
   <time name="dav">    3.50    3.50</time>
   <time name="total">    3.50    3.51</time>
   <energy>
    <i name="e_fr_energy">    -15.10345178 </i>
    <i name="e_wo_entrp">    -15.10345178 </i>
    <i name="e_0_energy">    -15.10345178 </i>
   </energy>
  </scstep>
  <scstep>
   <time name="dav">    3.51    3.51</time>
   <time name="total">    3.52    3.53</time>
   <energy>
    <i name="e_fr_energy">    -15.10530721 </i>
    <i name="e_wo_entrp">    -15.10530721 </i>
    <i name="e_0_energy">    -15.10530721 </i>
   </energy>
  </scstep>
  <scstep>
   <time name="dav">    3.50    3.50</time>
   <time name="total">    3.50    3.51</time>
   <energy>
    <i name="e_fr_energy">    -15.10530969 </i>
    <i name="e_wo_entrp">    -15.10530969 </i>
    <i name="e_0_energy">    -15.10530969 </i>
   </energy>
  </scstep>
  <scstep>
   <time name="dav">    3.14    3.14</time>
   <time name="total">    3.14    3.16</time>
   <energy>
    <i name="alphaZ">     20.54678699 </i>
    <i name="ewald">   -355.11288034 </i>
    <i name="hartreedc">    -25.24001257 </i>
    <i name="XCdc">     16.85960949 </i>
    <i name="pawpsdc">  15495.12568061 </i>
    <i name="pawaedc"> -15484.71925874 </i>
    <i name="eentropy">     -0.00000000 </i>
    <i name="bandstr">     23.64001957 </i>
    <i name="atom">    293.79474529 </i>
    <i name="e_fr_energy">    -15.10530971 </i>
    <i name="e_wo_entrp">    -15.10530971 </i>
    <i name="e_0_energy">    -15.10530971 </i>
   </energy>
  </scstep>
  <structure>
   <crystal>
    <varray name="basis" >
     <v>       0.00000000       1.74747244       1.74747244 </v>
     <v>       1.74747244       0.00000000       1.74747244 </v>
     <v>       1.74747244       1.74747244       0.00000000 </v>
    </varray>
    <i name="volume">     10.67237307 </i>
    <varray name="rec_basis" >
     <v>      -0.28612755       0.28612755       0.28612755 </v>
     <v>       0.28612755      -0.28612755       0.28612755 </v>
     <v>       0.28612755       0.28612755      -0.28612755 </v>
    </varray>
   </crystal>
   <varray name="positions" >
    <v>       0.00000000       0.00000000       0.00000000 </v>
    <v>       0.25000000       0.25000000       0.25000000 </v>
   </varray>
  </structure>
  <varray name="forces" >
   <v>       0.00000000       0.00000000       0.00000000 </v>
   <v>      -0.00000000      -0.00000000      -0.00000000 </v>
  </varray>
  <varray name="stress" >
   <v>     303.21761526       0.00000000       0.00000000 </v>
   <v>       0.00000000     303.21761526       0.00000000 </v>
   <v>      -0.00000000      -0.00000000     303.21761526 </v>
  </varray>
  <energy>
   <i name="e_fr_energy">    -15.10530971 </i>
   <i name="e_wo_entrp">    -15.10530971 </i>
   <i name="e_0_energy">     -0.00000000 </i>
  </energy>
  <time name="totalsc">   22.14   22.39</time>
  <eigenvalues>
   <array>
    <dimension dim="1">band</dimension>
    <dimension dim="2">kpoint</dimension>
    <dimension dim="3">spin</dimension>
    <field>eigene</field>
    <field>occ</field>
    <set>
     <set comment="spin 1">
      <set comment="kpoint 1">
       <r>  -10.4238    1.0000 </r>
       <r>   12.0607    1.0000 </r>
       <r>   12.0607    1.0000 </r>
       <r>   12.0607    1.0000 </r>
       <r>   17.7701    0.0000 </r>
       <r>   17.7701    0.0000 </r>
       <r>   17.7701    0.0000 </r>
       <r>   26.5891    0.0000 </r>
       <r>   31.9944    0.0000 </r>
       <r>   39.1223    0.0000 </r>
       <r>   39.1224    0.0000 </r>
       <r>   40.1979    0.0000 </r>
      </set>
      <set comment="kpoint 2">
       <r>  -10.4198    1.0000 </r>
       <r>   12.0425    1.0000 </r>
       <r>   12.0425    1.0000 </r>
       <r>   12.0509    1.0000 </r>
       <r>   17.7668    0.0000 </r>
       <r>   17.7919    0.0000 </r>
       <r>   17.7919    0.0000 </r>
       <r>   26.5919    0.0000 </r>
       <r>   32.0017    0.0000 </r>
       <r>   38.8397    0.0000 </r>
       <r>   39.1274    0.0000 </r>
       <r>   40.2074    0.0000 </r>
      </set>
      <set comment="kpoint 3">
       <r>  -10.4078    1.0000 </r>
       <r>   11.9887    1.0000 </r>
       <r>   11.9887    1.0000 </r>
       <r>   12.0219    1.0000 </r>
       <r>   17.7571    0.0000 </r>
       <r>   17.8565    0.0000 </r>
       <r>   17.8565    0.0000 </r>
       <r>   26.6000    0.0000 </r>
       <r>   32.0235    0.0000 </r>
       <r>   38.3087    0.0000 </r>
       <r>   39.1426    0.0000 </r>
       <r>   40.2357    0.0000 </r>
      </set>
      <set comment="kpoint 4">
       <r>  -10.3877    1.0000 </r>
       <r>   11.9019    1.0000 </r>
       <r>   11.9019    1.0000 </r>
       <r>   11.9736    1.0000 </r>
       <r>   17.7910    0.0000 </r>
       <r>   17.9646    0.0000 </r>
       <r>   17.9646    0.0000 </r>
       <r>   26.6125    0.0000 </r>
       <r>   32.0602    0.0000 </r>
       <r>   37.7282    0.0000 </r>
       <r>   39.1680    0.0000 </r>
       <r>   40.2833    0.0000 </r>
      </set>
      <set comment="kpoint 5">
       <r>  -10.3596    1.0000 </r>
       <r>   11.7855    1.0000 </r>
       <r>   11.7855    1.0000 </r>
       <r>   11.9066    1.0000 </r>
       <r>   17.7670    0.0000 </r>
       <r>   18.1061    0.0000 </r>
       <r>   18.1061    0.0000 </r>
       <r>   26.6276    0.0000 </r>
       <r>   32.1111    0.0000 </r>
       <r>   37.1405    0.0000 </r>
       <r>   39.2035    0.0000 </r>
       <r>   40.3494    0.0000 </r>
      </set>
      <set comment="kpoint 6">
       <r>  -10.3235    1.0000 </r>
       <r>   11.6438    1.0000 </r>
       <r>   11.6438    1.0000 </r>
       <r>   11.8211    1.0000 </r>
       <r>   17.7371    0.0000 </r>
       <r>   18.2801    0.0000 </r>
       <r>   18.2801    0.0000 </r>
       <r>   26.6429    0.0000 </r>
       <r>   32.1761    0.0000 </r>
       <r>   36.5608    0.0000 </r>
       <r>   39.2492    0.0000 </r>
       <r>   40.4343    0.0000 </r>
      </set>
      <set comment="kpoint 7">
       <r>  -10.2794    1.0000 </r>
       <r>   11.4810    1.0000 </r>
       <r>   11.4810    1.0000 </r>
       <r>   11.7178    1.0000 </r>
       <r>   17.7014    0.0000 </r>
       <r>   18.4823    0.0000 </r>
       <r>   18.4823    0.0000 </r>
       <r>   26.6554    0.0000 </r>
       <r>   32.2546    0.0000 </r>
       <r>   35.9980    0.0000 </r>
       <r>   39.3050    0.0000 </r>
       <r>   40.5380    0.0000 </r>
      </set>
      <set comment="kpoint 8">
       <r>  -10.2272    1.0000 </r>
       <r>   11.3012    1.0000 </r>
       <r>   11.3012    1.0000 </r>
       <r>   11.5972    1.0000 </r>
       <r>   17.6603    0.0000 </r>
       <r>   18.7086    0.0000 </r>
       <r>   18.7086    0.0000 </r>
       <r>   26.6611    0.0000 </r>
       <r>   32.3460    0.0000 </r>
       <r>   35.4591    0.0000 </r>
       <r>   39.3710    0.0000 </r>
       <r>   40.6604    0.0000 </r>
      </set>
      <set comment="kpoint 9">
       <r>  -10.1670    1.0000 </r>
       <r>   11.1104    1.0000 </r>
       <r>   11.1104    1.0000 </r>
       <r>   11.4600    1.0000 </r>
       <r>   17.6213    0.0000 </r>
       <r>   18.9778    0.0000 </r>
       <r>   18.9778    0.0000 </r>
       <r>   26.6552    0.0000 </r>
       <r>   32.4500    0.0000 </r>
       <r>   34.9506    0.0000 </r>
       <r>   39.4471    0.0000 </r>
       <r>   40.8030    0.0000 </r>
      </set>
      <set comment="kpoint 10">
       <r>  -10.0989    1.0000 </r>
       <r>   10.9074    1.0000 </r>
       <r>   10.9074    1.0000 </r>
       <r>   11.3070    1.0000 </r>
       <r>   17.5707    0.0000 </r>
       <r>   19.2409    0.0000 </r>
       <r>   19.2409    0.0000 </r>
       <r>   26.6323    0.0000 </r>
       <r>   32.5655    0.0000 </r>
       <r>   34.4789    0.0000 </r>
       <r>   39.5333    0.0000 </r>
       <r>   40.9629    0.0000 </r>
      </set>
      <set comment="kpoint 11">
       <r>  -10.0227    1.0000 </r>
       <r>   10.6970    1.0000 </r>
       <r>   10.6970    1.0000 </r>
       <r>   11.1388    1.0000 </r>
       <r>   17.5161    0.0000 </r>
       <r>   19.5184    0.0000 </r>
       <r>   19.5184    0.0000 </r>
       <r>   26.5866    0.0000 </r>
       <r>   32.6918    0.0000 </r>
       <r>   34.0506    0.0000 </r>
       <r>   39.6297    0.0000 </r>
       <r>   41.1412    0.0000 </r>
      </set>
      <set comment="kpoint 12">
       <r>   -9.9387    1.0000 </r>
       <r>   10.4813    1.0000 </r>
       <r>   10.4813    1.0000 </r>
       <r>   10.9563    1.0000 </r>
       <r>   17.4579    0.0000 </r>
       <r>   19.8079    0.0000 </r>
       <r>   19.8079    0.0000 </r>
       <r>   26.5119    0.0000 </r>
       <r>   32.8281    0.0000 </r>
       <r>   33.6719    0.0000 </r>
       <r>   39.7363    0.0000 </r>
       <r>   41.3379    0.0000 </r>
      </set>
      <set comment="kpoint 13">
       <r>   -9.8466    1.0000 </r>
       <r>   10.2623    1.0000 </r>
       <r>   10.2623    1.0000 </r>
       <r>   10.7600    1.0000 </r>
       <r>   17.3966    0.0000 </r>
       <r>   20.1075    0.0000 </r>
       <r>   20.1075    0.0000 </r>
       <r>   26.4028    0.0000 </r>
       <r>   32.9735    0.0000 </r>
       <r>   33.3481    0.0000 </r>
       <r>   39.8530    0.0000 </r>
       <r>   41.5527    0.0000 </r>
      </set>
      <set comment="kpoint 14">
       <r>   -9.7469    1.0000 </r>
       <r>   10.0276    1.0000 </r>
       <r>   10.0276    1.0000 </r>
       <r>   10.5352    1.0000 </r>
       <r>   17.3184    0.0000 </r>
       <r>   20.4146    0.0000 </r>
       <r>   20.4146    0.0000 </r>
       <r>   26.2504    0.0000 </r>
       <r>   33.0825    0.0000 </r>
       <r>   33.1210    0.0000 </r>
       <r>   39.9798    0.0000 </r>
       <r>   41.7848    0.0000 </r>
      </set>
      <set comment="kpoint 15">
       <r>   -9.6391    1.0000 </r>
       <r>    9.8060    1.0000 </r>
       <r>    9.8060    1.0000 </r>
       <r>   10.3139    1.0000 </r>
       <r>   17.2529    0.0000 </r>
       <r>   20.7297    0.0000 </r>
       <r>   20.7297    0.0000 </r>
       <r>   26.0621    0.0000 </r>
       <r>   32.8776    0.0000 </r>
       <r>   33.2808    0.0000 </r>
       <r>   40.1168    0.0000 </r>
       <r>   42.0352    0.0000 </r>
      </set>
      <set comment="kpoint 16">
       <r>   -9.5234    1.0000 </r>
       <r>    9.5806    1.0000 </r>
       <r>    9.5806    1.0000 </r>
       <r>   10.0391    1.0000 </r>
       <r>   17.1860    0.0000 </r>
       <r>   21.0490    0.0000 </r>
       <r>   21.0490    0.0000 </r>
       <r>   25.8134    0.0000 </r>
       <r>   32.7300    0.0000 </r>
       <r>   33.4466    0.0000 </r>
       <r>   40.2639    0.0000 </r>
       <r>   42.3025    0.0000 </r>
      </set>
      <set comment="kpoint 17">
       <r>   -9.3999    1.0000 </r>
       <r>    9.3613    1.0000 </r>
       <r>    9.3613    1.0000 </r>
       <r>    9.7953    1.0000 </r>
       <r>   17.1182    0.0000 </r>
       <r>   21.3744    0.0000 </r>
       <r>   21.3744    0.0000 </r>
       <r>   25.5477    0.0000 </r>
       <r>   32.6384    0.0000 </r>
       <r>   33.6176    0.0000 </r>
       <r>   40.4211    0.0000 </r>
       <r>   42.5873    0.0000 </r>
      </set>
      <set comment="kpoint 18">
       <r>   -9.2685    1.0000 </r>
       <r>    9.1444    1.0000 </r>
       <r>    9.1444    1.0000 </r>
       <r>    9.5412    1.0000 </r>
       <r>   17.0499    0.0000 </r>
       <r>   21.7036    0.0000 </r>
       <r>   21.7036    0.0000 </r>
       <r>   25.2502    0.0000 </r>
       <r>   32.5967    0.0000 </r>
       <r>   33.7927    0.0000 </r>
       <r>   40.5885    0.0000 </r>
       <r>   42.8887    0.0000 </r>
      </set>
      <set comment="kpoint 19">
       <r>   -9.1293    1.0000 </r>
       <r>    8.9306    1.0000 </r>
       <r>    8.9306    1.0000 </r>
       <r>    9.2773    1.0000 </r>
       <r>   16.9817    0.0000 </r>
       <r>   22.0358    0.0000 </r>
       <r>   22.0358    0.0000 </r>
       <r>   24.9267    0.0000 </r>
       <r>   32.5985    0.0000 </r>
       <r>   33.9708    0.0000 </r>
       <r>   40.7661    0.0000 </r>
       <r>   43.2060    0.0000 </r>
      </set>
      <set comment="kpoint 20">
       <r>   -8.9824    1.0000 </r>
       <r>    8.7204    1.0000 </r>
       <r>    8.7204    1.0000 </r>
       <r>    9.0151    1.0000 </r>
       <r>   16.9140    0.0000 </r>
       <r>   22.3703    0.0000 </r>
       <r>   22.3703    0.0000 </r>
       <r>   24.5848    0.0000 </r>
       <r>   32.6424    0.0000 </r>
       <r>   34.1508    0.0000 </r>
       <r>   40.9537    0.0000 </r>
       <r>   43.5386    0.0000 </r>
      </set>
      <set comment="kpoint 21">
       <r>   -8.8277    1.0000 </r>
       <r>    8.5144    1.0000 </r>
       <r>    8.5144    1.0000 </r>
       <r>    8.7323    1.0000 </r>
       <r>   16.8472    0.0000 </r>
       <r>   22.7064    0.0000 </r>
       <r>   22.7064    0.0000 </r>
       <r>   24.2270    0.0000 </r>
       <r>   32.7122    0.0000 </r>
       <r>   34.3317    0.0000 </r>
       <r>   41.1516    0.0000 </r>
       <r>   43.8855    0.0000 </r>
      </set>
      <set comment="kpoint 22">
       <r>   -8.6654    1.0000 </r>
       <r>    8.3129    1.0000 </r>
       <r>    8.3129    1.0000 </r>
       <r>    8.4413    1.0000 </r>
       <r>   16.7818    0.0000 </r>
       <r>   23.0436    0.0000 </r>
       <r>   23.0436    0.0000 </r>
       <r>   23.8602    0.0000 </r>
       <r>   32.8068    0.0000 </r>
       <r>   34.5125    0.0000 </r>
       <r>   41.3595    0.0000 </r>
       <r>   44.2457    0.0000 </r>
      </set>
      <set comment="kpoint 23">
       <r>   -8.4958    1.0000 </r>
       <r>    8.0724    1.0000 </r>
       <r>    8.0724    1.0000 </r>
       <r>    8.1352    1.0000 </r>
       <r>   16.7094    0.0000 </r>
       <r>   23.3773    0.0000 </r>
       <r>   23.3774    0.0000 </r>
       <r>   23.4883    0.0000 </r>
       <r>   32.9104    0.0000 </r>
       <r>   34.6843    0.0000 </r>
       <r>   41.5770    0.0000 </r>
       <r>   44.6087    0.0000 </r>
      </set>
      <set comment="kpoint 24">
       <r>   -8.3182    1.0000 </r>
       <r>    7.8292    1.0000 </r>
       <r>    7.8808    1.0000 </r>
       <r>    7.8808    1.0000 </r>
       <r>   16.6483    0.0000 </r>
       <r>   23.1159    0.0000 </r>
       <r>   23.7149    0.0000 </r>
       <r>   23.7149    0.0000 </r>
       <r>   33.0393    0.0000 </r>
       <r>   34.8611    0.0000 </r>
       <r>   41.8052    0.0000 </r>
       <r>   44.9894    0.0000 </r>
      </set>
      <set comment="kpoint 25">
       <r>   -8.1330    1.0000 </r>
       <r>    7.5162    1.0000 </r>
       <r>    7.6949    1.0000 </r>
       <r>    7.6949    1.0000 </r>
       <r>   16.5897    0.0000 </r>
       <r>   22.7456    0.0000 </r>
       <r>   24.0518    0.0000 </r>
       <r>   24.0518    0.0000 </r>
       <r>   33.1801    0.0000 </r>
       <r>   35.0346    0.0000 </r>
       <r>   42.0436    0.0000 </r>
       <r>   45.3771    0.0000 </r>
      </set>
      <set comment="kpoint 26">
       <r>   -7.9404    1.0000 </r>
       <r>    7.1966    1.0000 </r>
       <r>    7.5148    1.0000 </r>
       <r>    7.5148    1.0000 </r>
       <r>   16.5340    0.0000 </r>
       <r>   22.3798    0.0000 </r>
       <r>   24.3876    0.0000 </r>
       <r>   24.3876    0.0000 </r>
       <r>   33.3298    0.0000 </r>
       <r>   35.2039    0.0000 </r>
       <r>   42.2921    0.0000 </r>
       <r>   45.7681    0.0000 </r>
      </set>
      <set comment="kpoint 27">
       <r>   -7.7403    1.0000 </r>
       <r>    6.8708    1.0000 </r>
       <r>    7.3408    1.0000 </r>
       <r>    7.3408    1.0000 </r>
       <r>   16.4816    0.0000 </r>
       <r>   22.0205    0.0000 </r>
       <r>   24.7218    0.0000 </r>
       <r>   24.7218    0.0000 </r>
       <r>   33.4858    0.0000 </r>
       <r>   35.3679    0.0000 </r>
       <r>   42.5507    0.0000 </r>
       <r>   46.1573    0.0000 </r>
      </set>
      <set comment="kpoint 28">
       <r>   -7.5301    1.0000 </r>
       <r>    6.6004    1.0000 </r>
       <r>    7.1948    1.0000 </r>
       <r>    7.1948    1.0000 </r>
       <r>   16.4563    0.0000 </r>
       <r>   21.6759    0.0000 </r>
       <r>   25.0899    0.0000 </r>
       <r>   25.0899    0.0000 </r>
       <r>   33.7119    0.0000 </r>
       <r>   35.5745    0.0000 </r>
       <r>   42.8213    0.0000 </r>
       <r>   46.5469    0.0000 </r>
      </set>
      <set comment="kpoint 29">
       <r>   -7.3151    1.0000 </r>
       <r>    6.2600    1.0000 </r>
       <r>    7.0328    1.0000 </r>
       <r>    7.0328    1.0000 </r>
       <r>   16.4098    0.0000 </r>
       <r>   21.3334    0.0000 </r>
       <r>   25.4189    0.0000 </r>
       <r>   25.4189    0.0000 </r>
       <r>   33.8786    0.0000 </r>
       <r>   35.7269    0.0000 </r>
       <r>   43.1002    0.0000 </r>
       <r>   46.9086    0.0000 </r>
      </set>
      <set comment="kpoint 30">
       <r>   -7.0928    1.0000 </r>
       <r>    5.9150    1.0000 </r>
       <r>    6.8775    1.0000 </r>
       <r>    6.8775    1.0000 </r>
       <r>   16.3676    0.0000 </r>
       <r>   21.0012    0.0000 </r>
       <r>   25.7445    0.0000 </r>
       <r>   25.7445    0.0000 </r>
       <r>   34.0463    0.0000 </r>
       <r>   35.8713    0.0000 </r>
       <r>   43.3891    0.0000 </r>
       <r>   47.2376    0.0000 </r>
      </set>
      <set comment="kpoint 31">
       <r>   -6.8633    1.0000 </r>
       <r>    5.5657    1.0000 </r>
       <r>    6.7290    1.0000 </r>
       <r>    6.7290    1.0000 </r>
       <r>   16.3300    0.0000 </r>
       <r>   20.6799    0.0000 </r>
       <r>   26.0660    0.0000 </r>
       <r>   26.0660    0.0000 </r>
       <r>   34.2138    0.0000 </r>
       <r>   36.0070    0.0000 </r>
       <r>   43.6882    0.0000 </r>
       <r>   47.5162    0.0000 </r>
      </set>
      <set comment="kpoint 32">
       <r>   -6.6266    1.0000 </r>
       <r>    5.2127    1.0000 </r>
       <r>    6.5875    1.0000 </r>
       <r>    6.5875    1.0000 </r>
       <r>   16.2972    0.0000 </r>
       <r>   20.3702    0.0000 </r>
       <r>   26.3828    0.0000 </r>
       <r>   26.3828    0.0000 </r>
       <r>   34.3801    0.0000 </r>
       <r>   36.1333    0.0000 </r>
       <r>   43.9974    0.0000 </r>
       <r>   47.7241    0.0000 </r>
      </set>
      <set comment="kpoint 33">
       <r>   -6.3830    1.0000 </r>
       <r>    4.8563    1.0000 </r>
       <r>    6.4531    1.0000 </r>
       <r>    6.4531    1.0000 </r>
       <r>   16.2695    0.0000 </r>
       <r>   20.0724    0.0000 </r>
       <r>   26.6939    0.0000 </r>
       <r>   26.6939    0.0000 </r>
       <r>   34.5444    0.0000 </r>
       <r>   36.2498    0.0000 </r>
       <r>   44.3168    0.0000 </r>
       <r>   47.8441    0.0000 </r>
      </set>
      <set comment="kpoint 34">
       <r>   -6.1324    1.0000 </r>
       <r>    4.4971    1.0000 </r>
       <r>    6.3259    1.0000 </r>
       <r>    6.3259    1.0000 </r>
       <r>   16.2471    0.0000 </r>
       <r>   19.7867    0.0000 </r>
       <r>   26.9986    0.0000 </r>
       <r>   26.9986    0.0000 </r>
       <r>   34.7060    0.0000 </r>
       <r>   36.3558    0.0000 </r>
       <r>   44.6462    0.0000 </r>
       <r>   47.8690    0.0000 </r>
      </set>
      <set comment="kpoint 35">
       <r>   -5.8749    1.0000 </r>
       <r>    4.1354    1.0000 </r>
       <r>    6.2060    1.0000 </r>
       <r>    6.2060    1.0000 </r>
       <r>   16.2304    0.0000 </r>
       <r>   19.5134    0.0000 </r>
       <r>   27.2959    0.0000 </r>
       <r>   27.2959    0.0000 </r>
       <r>   34.8644    0.0000 </r>
       <r>   36.4511    0.0000 </r>
       <r>   44.9858    0.0000 </r>
       <r>   47.8058    0.0000 </r>
      </set>
      <set comment="kpoint 36">
       <r>   -5.6107    1.0000 </r>
       <r>    3.7718    1.0000 </r>
       <r>    6.0935    1.0000 </r>
       <r>    6.0935    1.0000 </r>
       <r>   16.2195    0.0000 </r>
       <r>   19.2525    0.0000 </r>
       <r>   27.5847    0.0000 </r>
       <r>   27.5847    0.0000 </r>
       <r>   35.0191    0.0000 </r>
       <r>   36.5354    0.0000 </r>
       <r>   45.3355    0.0000 </r>
       <r>   47.6718    0.0000 </r>
      </set>
      <set comment="kpoint 37">
       <r>   -5.3398    1.0000 </r>
       <r>    3.4067    1.0000 </r>
       <r>    5.9884    1.0000 </r>
       <r>    5.9884    1.0000 </r>
       <r>   16.2147    0.0000 </r>
       <r>   19.0039    0.0000 </r>
       <r>   27.8639    0.0000 </r>
       <r>   27.8639    0.0000 </r>
       <r>   35.1697    0.0000 </r>
       <r>   36.6084    0.0000 </r>
       <r>   45.6953    0.0000 </r>
       <r>   47.4876    0.0000 </r>
      </set>
      <set comment="kpoint 38">
       <r>   -5.0624    1.0000 </r>
       <r>    3.0406    1.0000 </r>
       <r>    5.8909    1.0000 </r>
       <r>    5.8909    1.0000 </r>
       <r>   16.2162    0.0000 </r>
       <r>   18.7677    0.0000 </r>
       <r>   28.1322    0.0000 </r>
       <r>   28.1322    0.0000 </r>
       <r>   35.3160    0.0000 </r>
       <r>   36.6701    0.0000 </r>
       <r>   46.0735    0.0000 </r>
       <r>   47.2719    0.0000 </r>
      </set>
      <set comment="kpoint 39">
       <r>   -4.7787    1.0000 </r>
       <r>    2.6739    1.0000 </r>
       <r>    5.8010    1.0000 </r>
       <r>    5.8010    1.0000 </r>
       <r>   16.2243    0.0000 </r>
       <r>   18.5436    0.0000 </r>
       <r>   28.3882    0.0000 </r>
       <r>   28.3882    0.0000 </r>
       <r>   35.4575    0.0000 </r>
       <r>   36.7205    0.0000 </r>
       <r>   46.4469    0.0000 </r>
       <r>   47.0395    0.0000 </r>
      </set>
      <set comment="kpoint 40">
       <r>   -4.4928    1.0000 </r>
       <r>    2.2958    1.0000 </r>
       <r>    5.7396    1.0000 </r>
       <r>    5.7396    1.0000 </r>
       <r>   16.2356    0.0000 </r>
       <r>   18.3255    0.0000 </r>
       <r>   28.6750    0.0000 </r>
       <r>   28.6750    0.0000 </r>
       <r>   35.5578    0.0000 </r>
       <r>   36.7133    0.0000 </r>
       <r>   46.8360    0.0000 </r>
       <r>   46.8396    0.0000 </r>
      </set>
      <set comment="kpoint 41">
       <r>   -4.1971    1.0000 </r>
       <r>    1.9295    1.0000 </r>
       <r>    5.6652    1.0000 </r>
       <r>    5.6652    1.0000 </r>
       <r>   16.2577    0.0000 </r>
       <r>   18.1251    0.0000 </r>
       <r>   28.9023    0.0000 </r>
       <r>   28.9023    0.0000 </r>
       <r>   35.6867    0.0000 </r>
       <r>   36.7397    0.0000 </r>
       <r>   46.6021    0.0000 </r>
       <r>   46.6035    0.0000 </r>
      </set>
      <set comment="kpoint 42">
       <r>   -3.8926    1.0000 </r>
       <r>    1.5712    1.0000 </r>
       <r>    5.6183    1.0000 </r>
       <r>    5.6183    1.0000 </r>
       <r>   16.2923    0.0000 </r>
       <r>   17.9385    0.0000 </r>
       <r>   29.1376    0.0000 </r>
       <r>   29.1376    0.0000 </r>
       <r>   35.8334    0.0000 </r>
       <r>   36.7933    0.0000 </r>
       <r>   46.3893    0.0000 </r>
       <r>   46.3895    0.0000 </r>
      </set>
      <set comment="kpoint 43">
       <r>   -3.5850    1.0000 </r>
       <r>    1.2064    1.0000 </r>
       <r>    5.5591    1.0000 </r>
       <r>    5.5591    1.0000 </r>
       <r>   16.3286    0.0000 </r>
       <r>   17.7612    0.0000 </r>
       <r>   29.3285    0.0000 </r>
       <r>   29.3285    0.0000 </r>
       <r>   35.9517    0.0000 </r>
       <r>   36.7980    0.0000 </r>
       <r>   46.1764    0.0000 </r>
       <r>   46.1764    0.0000 </r>
      </set>
      <set comment="kpoint 44">
       <r>   -3.2718    1.0000 </r>
       <r>    0.8431    1.0000 </r>
       <r>    5.5078    1.0000 </r>
       <r>    5.5078    1.0000 </r>
       <r>   16.3728    0.0000 </r>
       <r>   17.5951    0.0000 </r>
       <r>   29.4988    0.0000 </r>
       <r>   29.4988    0.0000 </r>
       <r>   36.0641    0.0000 </r>
       <r>   36.7923    0.0000 </r>
       <r>   45.9833    0.0000 </r>
       <r>   45.9833    0.0000 </r>
      </set>
      <set comment="kpoint 45">
       <r>   -2.9533    1.0000 </r>
       <r>    0.4819    1.0000 </r>
       <r>    5.4643    1.0000 </r>
       <r>    5.4643    1.0000 </r>
       <r>   16.4248    0.0000 </r>
       <r>   17.4399    0.0000 </r>
       <r>   29.6467    0.0000 </r>
       <r>   29.6467    0.0000 </r>
       <r>   36.1702    0.0000 </r>
       <r>   36.7764    0.0000 </r>
       <r>   45.8137    0.0000 </r>
       <r>   45.8138    0.0000 </r>
      </set>
      <set comment="kpoint 46">
       <r>   -2.6295    1.0000 </r>
       <r>    0.1229    1.0000 </r>
       <r>    5.4288    1.0000 </r>
       <r>    5.4288    1.0000 </r>
       <r>   16.4850    0.0000 </r>
       <r>   17.2955    0.0000 </r>
       <r>   29.7706    0.0000 </r>
       <r>   29.7706    0.0000 </r>
       <r>   36.2698    0.0000 </r>
       <r>   36.7507    0.0000 </r>
       <r>   45.6707    0.0000 </r>
       <r>   45.6707    0.0000 </r>
      </set>
      <set comment="kpoint 47">
       <r>   -2.3008    1.0000 </r>
       <r>   -0.2294    1.0000 </r>
       <r>    5.4114    1.0000 </r>
       <r>    5.4114    1.0000 </r>
       <r>   16.5541    0.0000 </r>
       <r>   17.1627    0.0000 </r>
       <r>   29.8950    0.0000 </r>
       <r>   29.8950    0.0000 </r>
       <r>   36.3793    0.0000 </r>
       <r>   36.7156    0.0000 </r>
       <r>   45.5629    0.0000 </r>
       <r>   45.5629    0.0000 </r>
      </set>
      <set comment="kpoint 48">
       <r>   -1.9673    1.0000 </r>
       <r>   -0.5828    1.0000 </r>
       <r>    5.3915    1.0000 </r>
       <r>    5.3915    1.0000 </r>
       <r>   16.6313    0.0000 </r>
       <r>   17.0389    0.0000 </r>
       <r>   29.9658    0.0000 </r>
       <r>   29.9658    0.0000 </r>
       <r>   36.4656    0.0000 </r>
       <r>   36.6715    0.0000 </r>
       <r>   45.4806    0.0000 </r>
       <r>   45.4806    0.0000 </r>
      </set>
      <set comment="kpoint 49">
       <r>   -1.6218    1.0000 </r>
       <r>   -0.9329    1.0000 </r>
       <r>    5.3833    1.0000 </r>
       <r>    5.3833    1.0000 </r>
       <r>   16.7261    0.0000 </r>
       <r>   16.9251    0.0000 </r>
       <r>   30.0192    0.0000 </r>
       <r>   30.0192    0.0000 </r>
       <r>   36.5445    0.0000 </r>
       <r>   36.6790    0.0000 </r>
       <r>   45.4316    0.0000 </r>
       <r>   45.4316    0.0000 </r>
      </set>
      <set comment="kpoint 50">
       <r>   -1.2793    1.0000 </r>
       <r>   -1.2793    1.0000 </r>
       <r>    5.3793    1.0000 </r>
       <r>    5.3793    1.0000 </r>
       <r>   16.8208    0.0000 </r>
       <r>   16.8208    0.0000 </r>
       <r>   30.0335    0.0000 </r>
       <r>   30.0335    0.0000 </r>
       <r>   36.6158    0.0000 </r>
       <r>   36.6158    0.0000 </r>
       <r>   45.4148    0.0000 </r>
       <r>   45.4148    0.0000 </r>
      </set>
      <set comment="kpoint 51">
       <r>   -1.2793    1.0000 </r>
       <r>   -1.2793    1.0000 </r>
       <r>    5.3793    1.0000 </r>
       <r>    5.3793    1.0000 </r>
       <r>   16.8208    0.0000 </r>
       <r>   16.8208    0.0000 </r>
       <r>   30.0335    0.0000 </r>
       <r>   30.0335    0.0000 </r>
       <r>   36.6158    0.0000 </r>
       <r>   36.6158    0.0000 </r>
       <r>   45.4148    0.0000 </r>
       <r>   45.4148    0.0000 </r>
      </set>
      <set comment="kpoint 52">
       <r>   -1.2791    1.0000 </r>
       <r>   -1.2789    1.0000 </r>
       <r>    5.3765    1.0000 </r>
       <r>    5.3797    1.0000 </r>
       <r>   16.8213    0.0000 </r>
       <r>   16.8247    0.0000 </r>
       <r>   30.0321    0.0000 </r>
       <r>   30.0328    0.0000 </r>
       <r>   36.6122    0.0000 </r>
       <r>   36.6165    0.0000 </r>
       <r>   45.4068    0.0000 </r>
       <r>   45.4177    0.0000 </r>
      </set>
      <set comment="kpoint 53">
       <r>   -1.2784    1.0000 </r>
       <r>   -1.2775    1.0000 </r>
       <r>    5.3681    1.0000 </r>
       <r>    5.3810    1.0000 </r>
       <r>   16.8225    0.0000 </r>
       <r>   16.8364    0.0000 </r>
       <r>   30.0281    0.0000 </r>
       <r>   30.0308    0.0000 </r>
       <r>   36.6014    0.0000 </r>
       <r>   36.6186    0.0000 </r>
       <r>   45.3832    0.0000 </r>
       <r>   45.4265    0.0000 </r>
      </set>
      <set comment="kpoint 54">
       <r>   -1.2773    1.0000 </r>
       <r>   -1.2752    1.0000 </r>
       <r>    5.3542    1.0000 </r>
       <r>    5.3832    1.0000 </r>
       <r>   16.8246    0.0000 </r>
       <r>   16.8558    0.0000 </r>
       <r>   30.0213    0.0000 </r>
       <r>   30.0275    0.0000 </r>
       <r>   36.5835    0.0000 </r>
       <r>   36.6221    0.0000 </r>
       <r>   45.3443    0.0000 </r>
       <r>   45.4412    0.0000 </r>
      </set>
      <set comment="kpoint 55">
       <r>   -1.2757    1.0000 </r>
       <r>   -1.2721    1.0000 </r>
       <r>    5.3347    1.0000 </r>
       <r>    5.3862    1.0000 </r>
       <r>   16.8275    0.0000 </r>
       <r>   16.8828    0.0000 </r>
       <r>   30.0118    0.0000 </r>
       <r>   30.0228    0.0000 </r>
       <r>   36.5586    0.0000 </r>
       <r>   36.6271    0.0000 </r>
       <r>   45.2908    0.0000 </r>
       <r>   45.4615    0.0000 </r>
      </set>
      <set comment="kpoint 56">
       <r>   -1.2745    1.0000 </r>
       <r>   -1.2692    1.0000 </r>
       <r>    5.2810    1.0000 </r>
       <r>    5.3856    1.0000 </r>
       <r>   16.8306    0.0000 </r>
       <r>   16.9168    0.0000 </r>
       <r>   29.9481    0.0000 </r>
       <r>   29.9882    0.0000 </r>
       <r>   36.5192    0.0000 </r>
       <r>   36.6271    0.0000 </r>
       <r>   45.2192    0.0000 </r>
       <r>   45.4690    0.0000 </r>
      </set>
      <set comment="kpoint 57">
       <r>   -1.2721    1.0000 </r>
       <r>   -1.2642    1.0000 </r>
       <r>    5.2507    1.0000 </r>
       <r>    5.3902    1.0000 </r>
       <r>   16.8351    0.0000 </r>
       <r>   16.9589    0.0000 </r>
       <r>   29.9405    0.0000 </r>
       <r>   29.9733    0.0000 </r>
       <r>   36.4805    0.0000 </r>
       <r>   36.6347    0.0000 </r>
       <r>   45.1391    0.0000 </r>
       <r>   45.5000    0.0000 </r>
      </set>
      <set comment="kpoint 58">
       <r>   -1.2692    1.0000 </r>
       <r>   -1.2584    1.0000 </r>
       <r>    5.2153    1.0000 </r>
       <r>    5.3958    1.0000 </r>
       <r>   16.8404    0.0000 </r>
       <r>   17.0082    0.0000 </r>
       <r>   29.9315    0.0000 </r>
       <r>   29.9557    0.0000 </r>
       <r>   36.4352    0.0000 </r>
       <r>   36.6436    0.0000 </r>
       <r>   45.0474    0.0000 </r>
       <r>   45.5362    0.0000 </r>
      </set>
      <set comment="kpoint 59">
       <r>   -1.2659    1.0000 </r>
       <r>   -1.2517    1.0000 </r>
       <r>    5.1750    1.0000 </r>
       <r>    5.4022    1.0000 </r>
       <r>   16.8466    0.0000 </r>
       <r>   17.0647    0.0000 </r>
       <r>   29.9213    0.0000 </r>
       <r>   29.9354    0.0000 </r>
       <r>   36.3837    0.0000 </r>
       <r>   36.6538    0.0000 </r>
       <r>   44.9452    0.0000 </r>
       <r>   45.5772    0.0000 </r>
      </set>
      <set comment="kpoint 60">
       <r>   -1.2622    1.0000 </r>
       <r>   -1.2441    1.0000 </r>
       <r>    5.1298    1.0000 </r>
       <r>    5.4095    1.0000 </r>
       <r>   16.8536    0.0000 </r>
       <r>   17.1282    0.0000 </r>
       <r>   29.9099    0.0000 </r>
       <r>   29.9125    0.0000 </r>
       <r>   36.3260    0.0000 </r>
       <r>   36.6654    0.0000 </r>
       <r>   44.8335    0.0000 </r>
       <r>   45.6228    0.0000 </r>
      </set>
      <set comment="kpoint 61">
       <r>   -1.2623    1.0000 </r>
       <r>   -1.2393    1.0000 </r>
       <r>    5.0743    1.0000 </r>
       <r>    5.3947    1.0000 </r>
       <r>   16.8565    0.0000 </r>
       <r>   17.1911    0.0000 </r>
       <r>   29.8311    0.0000 </r>
       <r>   29.8814    0.0000 </r>
       <r>   36.2311    0.0000 </r>
       <r>   36.6383    0.0000 </r>
       <r>   44.7022    0.0000 </r>
       <r>   45.6645    0.0000 </r>
      </set>
      <set comment="kpoint 62">
       <r>   -1.2578    1.0000 </r>
       <r>   -1.2298    1.0000 </r>
       <r>    5.0204    1.0000 </r>
       <r>    5.4035    1.0000 </r>
       <r>   16.8650    0.0000 </r>
       <r>   17.2676    0.0000 </r>
       <r>   29.8029    0.0000 </r>
       <r>   29.8679    0.0000 </r>
       <r>   36.1620    0.0000 </r>
       <r>   36.6516    0.0000 </r>
       <r>   44.5748    0.0000 </r>
       <r>   45.7177    0.0000 </r>
      </set>
      <set comment="kpoint 63">
       <r>   -1.2530    1.0000 </r>
       <r>   -1.2194    1.0000 </r>
       <r>    4.9623    1.0000 </r>
       <r>    5.4132    1.0000 </r>
       <r>   16.8744    0.0000 </r>
       <r>   17.3506    0.0000 </r>
       <r>   29.7720    0.0000 </r>
       <r>   29.8533    0.0000 </r>
       <r>   36.0876    0.0000 </r>
       <r>   36.6661    0.0000 </r>
       <r>   44.4409    0.0000 </r>
       <r>   45.7744    0.0000 </r>
      </set>
      <set comment="kpoint 64">
       <r>   -1.2479    1.0000 </r>
       <r>   -1.2082    1.0000 </r>
       <r>    4.9002    1.0000 </r>
       <r>    5.4238    1.0000 </r>
       <r>   16.8846    0.0000 </r>
       <r>   17.4399    0.0000 </r>
       <r>   29.7387    0.0000 </r>
       <r>   29.8376    0.0000 </r>
       <r>   36.0082    0.0000 </r>
       <r>   36.6818    0.0000 </r>
       <r>   44.3014    0.0000 </r>
       <r>   45.8343    0.0000 </r>
      </set>
      <set comment="kpoint 65">
       <r>   -1.2425    1.0000 </r>
       <r>   -1.1960    1.0000 </r>
       <r>    4.8344    1.0000 </r>
       <r>    5.4352    1.0000 </r>
       <r>   16.8955    0.0000 </r>
       <r>   17.5351    0.0000 </r>
       <r>   29.7030    0.0000 </r>
       <r>   29.8207    0.0000 </r>
       <r>   35.9240    0.0000 </r>
       <r>   36.6987    0.0000 </r>
       <r>   44.1571    0.0000 </r>
       <r>   45.8969    0.0000 </r>
      </set>
      <set comment="kpoint 66">
       <r>   -1.2369    1.0000 </r>
       <r>   -1.1830    1.0000 </r>
       <r>    4.7652    1.0000 </r>
       <r>    5.4474    1.0000 </r>
       <r>   16.9073    0.0000 </r>
       <r>   17.6361    0.0000 </r>
       <r>   29.6648    0.0000 </r>
       <r>   29.8026    0.0000 </r>
       <r>   35.8353    0.0000 </r>
       <r>   36.7168    0.0000 </r>
       <r>   44.0085    0.0000 </r>
       <r>   45.9620    0.0000 </r>
      </set>
      <set comment="kpoint 67">
       <r>   -1.2310    1.0000 </r>
       <r>   -1.1690    1.0000 </r>
       <r>    4.6927    1.0000 </r>
       <r>    5.4605    1.0000 </r>
       <r>   16.9200    0.0000 </r>
       <r>   17.7427    0.0000 </r>
       <r>   29.6243    0.0000 </r>
       <r>   29.7835    0.0000 </r>
       <r>   35.7424    0.0000 </r>
       <r>   36.7360    0.0000 </r>
       <r>   43.8564    0.0000 </r>
       <r>   46.0291    0.0000 </r>
      </set>
      <set comment="kpoint 68">
       <r>   -1.2249    1.0000 </r>
       <r>   -1.1542    1.0000 </r>
       <r>    4.6171    1.0000 </r>
       <r>    5.4745    1.0000 </r>
       <r>   16.9334    0.0000 </r>
       <r>   17.8546    0.0000 </r>
       <r>   29.5814    0.0000 </r>
       <r>   29.7633    0.0000 </r>
       <r>   35.6455    0.0000 </r>
       <r>   36.7563    0.0000 </r>
       <r>   43.7011    0.0000 </r>
       <r>   46.0978    0.0000 </r>
      </set>
      <set comment="kpoint 69">
       <r>   -1.2186    1.0000 </r>
       <r>   -1.1385    1.0000 </r>
       <r>    4.5388    1.0000 </r>
       <r>    5.4893    1.0000 </r>
       <r>   16.9476    0.0000 </r>
       <r>   17.9717    0.0000 </r>
       <r>   29.5361    0.0000 </r>
       <r>   29.7421    0.0000 </r>
       <r>   35.5450    0.0000 </r>
       <r>   36.7777    0.0000 </r>
       <r>   43.5433    0.0000 </r>
       <r>   46.1679    0.0000 </r>
      </set>
      <set comment="kpoint 70">
       <r>   -1.2122    1.0000 </r>
       <r>   -1.1218    1.0000 </r>
       <r>    4.4580    1.0000 </r>
       <r>    5.5049    1.0000 </r>
       <r>   16.9627    0.0000 </r>
       <r>   18.0936    0.0000 </r>
       <r>   29.4887    0.0000 </r>
       <r>   29.7198    0.0000 </r>
       <r>   35.4410    0.0000 </r>
       <r>   36.8001    0.0000 </r>
       <r>   43.3832    0.0000 </r>
       <r>   46.2388    0.0000 </r>
      </set>
      <set comment="kpoint 71">
       <r>   -1.2058    1.0000 </r>
       <r>   -1.1043    1.0000 </r>
       <r>    4.3749    1.0000 </r>
       <r>    5.5213    1.0000 </r>
[...]
        <r>  0.0000  0.0069  0.0523  0.0151  0.0000  0.0000  0.0000  0.0000  0.0000 </r>
       </set>
      </set>
      <set comment="kpoint 294">
       <set comment="band 1">
        <r>  0.1146  0.0663  0.0002  0.0001  0.0000  0.0000  0.0000  0.0000  0.0000 </r>
        <r>  0.1146  0.0663  0.0002  0.0001  0.0000  0.0000  0.0000  0.0000  0.0000 </r>
       </set>
       <set comment="band 2">
        <r>  0.1146  0.0663  0.0002  0.0001  0.0000  0.0000  0.0000  0.0000  0.0000 </r>
        <r>  0.1146  0.0663  0.0002  0.0001  0.0000  0.0000  0.0000  0.0000  0.0000 </r>
       </set>
       <set comment="band 3">
        <r>  0.0007  0.0006  0.1019  0.1013  0.0000  0.0000  0.0000  0.0000  0.0000 </r>
        <r>  0.0007  0.0006  0.1019  0.1013  0.0000  0.0000  0.0000  0.0000  0.0000 </r>
       </set>
       <set comment="band 4">
        <r>  0.0007  0.0006  0.1019  0.1013  0.0000  0.0000  0.0000  0.0000  0.0000 </r>
        <r>  0.0007  0.0006  0.1019  0.1013  0.0000  0.0000  0.0000  0.0000  0.0000 </r>
       </set>
       <set comment="band 5">
        <r>  0.0795  0.0316  0.0009  0.0027  0.0000  0.0000  0.0000  0.0000  0.0000 </r>
        <r>  0.0795  0.0316  0.0009  0.0027  0.0000  0.0000  0.0000  0.0000  0.0000 </r>
       </set>
       <set comment="band 6">
        <r>  0.0795  0.0316  0.0009  0.0027  0.0000  0.0000  0.0000  0.0000  0.0000 </r>
        <r>  0.0795  0.0316  0.0009  0.0027  0.0000  0.0000  0.0000  0.0000  0.0000 </r>
       </set>
       <set comment="band 7">
        <r>  0.0012  0.0009  0.1812  0.1599  0.0000  0.0000  0.0000  0.0000  0.0000 </r>
        <r>  0.0014  0.0008  0.1598  0.1813  0.0000  0.0000  0.0000  0.0000  0.0000 </r>
       </set>
       <set comment="band 8">
        <r>  0.0014  0.0008  0.1598  0.1813  0.0000  0.0000  0.0000  0.0000  0.0000 </r>
        <r>  0.0012  0.0009  0.1812  0.1599  0.0000  0.0000  0.0000  0.0000  0.0000 </r>
       </set>
       <set comment="band 9">
        <r>  0.0312  0.2509  0.0021  0.0005  0.0000  0.0000  0.0000  0.0000  0.0000 </r>
        <r>  0.0312  0.2509  0.0021  0.0005  0.0000  0.0000  0.0000  0.0000  0.0000 </r>
       </set>
       <set comment="band 10">
        <r>  0.0312  0.2509  0.0021  0.0005  0.0000  0.0000  0.0000  0.0000  0.0000 </r>
        <r>  0.0312  0.2509  0.0021  0.0005  0.0000  0.0000  0.0000  0.0000  0.0000 </r>
       </set>
       <set comment="band 11">
        <r>  0.0000  0.0022  0.0222  0.0412  0.0000  0.0000  0.0000  0.0000  0.0000 </r>
        <r>  0.0000  0.0048  0.0480  0.0191  0.0000  0.0000  0.0000  0.0000  0.0000 </r>
       </set>
       <set comment="band 12">
        <r>  0.0000  0.0048  0.0479  0.0191  0.0000  0.0000  0.0000  0.0000  0.0000 </r>
        <r>  0.0000  0.0022  0.0222  0.0412  0.0000  0.0000  0.0000  0.0000  0.0000 </r>
       </set>
      </set>
      <set comment="kpoint 295">
       <set comment="band 1">
        <r>  0.1146  0.0664  0.0001  0.0000  0.0000  0.0000  0.0000  0.0000  0.0000 </r>
        <r>  0.1146  0.0664  0.0001  0.0000  0.0000  0.0000  0.0000  0.0000  0.0000 </r>
       </set>
       <set comment="band 2">
        <r>  0.1146  0.0664  0.0001  0.0000  0.0000  0.0000  0.0000  0.0000  0.0000 </r>
        <r>  0.1146  0.0664  0.0001  0.0000  0.0000  0.0000  0.0000  0.0000  0.0000 </r>
       </set>
       <set comment="band 3">
        <r>  0.0005  0.0004  0.1022  0.1018  0.0000  0.0000  0.0000  0.0000  0.0000 </r>
        <r>  0.0005  0.0004  0.1022  0.1018  0.0000  0.0000  0.0000  0.0000  0.0000 </r>
       </set>
       <set comment="band 4">
        <r>  0.0005  0.0004  0.1022  0.1018  0.0000  0.0000  0.0000  0.0000  0.0000 </r>
        <r>  0.0005  0.0004  0.1022  0.1018  0.0000  0.0000  0.0000  0.0000  0.0000 </r>
       </set>
       <set comment="band 5">
        <r>  0.0800  0.0317  0.0006  0.0019  0.0000  0.0000  0.0000  0.0000  0.0000 </r>
        <r>  0.0800  0.0317  0.0006  0.0019  0.0000  0.0000  0.0000  0.0000  0.0000 </r>
       </set>
       <set comment="band 6">
        <r>  0.0800  0.0317  0.0006  0.0019  0.0000  0.0000  0.0000  0.0000  0.0000 </r>
        <r>  0.0800  0.0317  0.0006  0.0019  0.0000  0.0000  0.0000  0.0000  0.0000 </r>
       </set>
       <set comment="band 7">
        <r>  0.0011  0.0004  0.1298  0.2125  0.0000  0.0000  0.0000  0.0000  0.0000 </r>
        <r>  0.0007  0.0007  0.2126  0.1298  0.0000  0.0000  0.0000  0.0000  0.0000 </r>
       </set>
       <set comment="band 8">
        <r>  0.0007  0.0007  0.2126  0.1298  0.0000  0.0000  0.0000  0.0000  0.0000 </r>
        <r>  0.0011  0.0004  0.1298  0.2125  0.0000  0.0000  0.0000  0.0000  0.0000 </r>
       </set>
       <set comment="band 9">
        <r>  0.0315  0.2523  0.0014  0.0003  0.0000  0.0000  0.0000  0.0000  0.0000 </r>
        <r>  0.0315  0.2523  0.0014  0.0003  0.0000  0.0000  0.0000  0.0000  0.0000 </r>
       </set>
       <set comment="band 10">
        <r>  0.0315  0.2523  0.0014  0.0003  0.0000  0.0000  0.0000  0.0000  0.0000 </r>
        <r>  0.0315  0.2523  0.0014  0.0003  0.0000  0.0000  0.0000  0.0000  0.0000 </r>
       </set>
       <set comment="band 11">
        <r>  0.0000  0.0022  0.0317  0.0341  0.0000  0.0000  0.0000  0.0000  0.0000 </r>
        <r>  0.0000  0.0027  0.0381  0.0284  0.0000  0.0000  0.0000  0.0000  0.0000 </r>
       </set>
       <set comment="band 12">
        <r>  0.0000  0.0027  0.0381  0.0284  0.0000  0.0000  0.0000  0.0000  0.0000 </r>
        <r>  0.0000  0.0022  0.0317  0.0341  0.0000  0.0000  0.0000  0.0000  0.0000 </r>
       </set>
      </set>
      <set comment="kpoint 296">
       <set comment="band 1">
        <r>  0.1146  0.0664  0.0001  0.0000  0.0000  0.0000  0.0000  0.0000  0.0000 </r>
        <r>  0.1144  0.0665  0.0001  0.0000  0.0000  0.0000  0.0000  0.0000  0.0000 </r>
       </set>
       <set comment="band 2">
        <r>  0.1144  0.0665  0.0001  0.0000  0.0000  0.0000  0.0000  0.0000  0.0000 </r>
        <r>  0.1146  0.0664  0.0001  0.0000  0.0000  0.0000  0.0000  0.0000  0.0000 </r>
       </set>
       <set comment="band 3">
        <r>  0.0003  0.0003  0.1028  0.1023  0.0000  0.0000  0.0000  0.0000  0.0000 </r>
        <r>  0.0003  0.0003  0.1026  0.1025  0.0000  0.0000  0.0000  0.0000  0.0000 </r>
       </set>
       <set comment="band 4">
        <r>  0.0003  0.0003  0.1026  0.1025  0.0000  0.0000  0.0000  0.0000  0.0000 </r>
        <r>  0.0003  0.0003  0.1028  0.1023  0.0000  0.0000  0.0000  0.0000  0.0000 </r>
       </set>
       <set comment="band 5">
        <r>  0.0802  0.0317  0.0004  0.0012  0.0000  0.0000  0.0000  0.0000  0.0000 </r>
        <r>  0.0802  0.0317  0.0004  0.0012  0.0000  0.0000  0.0000  0.0000  0.0000 </r>
       </set>
       <set comment="band 6">
        <r>  0.0802  0.0317  0.0004  0.0012  0.0000  0.0000  0.0000  0.0000  0.0000 </r>
        <r>  0.0802  0.0317  0.0004  0.0012  0.0000  0.0000  0.0000  0.0000  0.0000 </r>
       </set>
       <set comment="band 7">
        <r>  0.0006  0.0004  0.1745  0.1695  0.0000  0.0000  0.0000  0.0000  0.0000 </r>
        <r>  0.0006  0.0004  0.1696  0.1743  0.0000  0.0000  0.0000  0.0000  0.0000 </r>
       </set>
       <set comment="band 8">
        <r>  0.0006  0.0004  0.1696  0.1743  0.0000  0.0000  0.0000  0.0000  0.0000 </r>
        <r>  0.0006  0.0004  0.1745  0.1695  0.0000  0.0000  0.0000  0.0000  0.0000 </r>
       </set>
       <set comment="band 9">
        <r>  0.0318  0.2541  0.0009  0.0002  0.0000  0.0000  0.0000  0.0000  0.0000 </r>
        <r>  0.0318  0.2541  0.0009  0.0002  0.0000  0.0000  0.0000  0.0000  0.0000 </r>
       </set>
       <set comment="band 10">
        <r>  0.0318  0.2541  0.0009  0.0002  0.0000  0.0000  0.0000  0.0000  0.0000 </r>
        <r>  0.0318  0.2541  0.0009  0.0002  0.0000  0.0000  0.0000  0.0000  0.0000 </r>
       </set>
       <set comment="band 11">
        <r>  0.0000  0.0020  0.0433  0.0244  0.0000  0.0000  0.0000  0.0000  0.0000 </r>
        <r>  0.0000  0.0012  0.0263  0.0402  0.0000  0.0000  0.0000  0.0000  0.0000 </r>
       </set>
       <set comment="band 12">
        <r>  0.0000  0.0012  0.0263  0.0402  0.0000  0.0000  0.0000  0.0000  0.0000 </r>
        <r>  0.0000  0.0020  0.0433  0.0244  0.0000  0.0000  0.0000  0.0000  0.0000 </r>
       </set>
      </set>
      <set comment="kpoint 297">
       <set comment="band 1">
        <r>  0.1146  0.0664  0.0000  0.0000  0.0000  0.0000  0.0000  0.0000  0.0000 </r>
        <r>  0.1143  0.0666  0.0000  0.0000  0.0000  0.0000  0.0000  0.0000  0.0000 </r>
       </set>
       <set comment="band 2">
        <r>  0.1143  0.0666  0.0000  0.0000  0.0000  0.0000  0.0000  0.0000  0.0000 </r>
        <r>  0.1146  0.0664  0.0000  0.0000  0.0000  0.0000  0.0000  0.0000  0.0000 </r>
       </set>
       <set comment="band 3">
        <r>  0.0002  0.0001  0.1031  0.1029  0.0000  0.0000  0.0000  0.0000  0.0000 </r>
        <r>  0.0002  0.0001  0.1031  0.1029  0.0000  0.0000  0.0000  0.0000  0.0000 </r>
       </set>
       <set comment="band 4">
        <r>  0.0002  0.0001  0.1031  0.1029  0.0000  0.0000  0.0000  0.0000  0.0000 </r>
        <r>  0.0002  0.0001  0.1031  0.1029  0.0000  0.0000  0.0000  0.0000  0.0000 </r>
       </set>
       <set comment="band 5">
        <r>  0.0804  0.0318  0.0002  0.0007  0.0000  0.0000  0.0000  0.0000  0.0000 </r>
        <r>  0.0804  0.0318  0.0002  0.0007  0.0000  0.0000  0.0000  0.0000  0.0000 </r>
       </set>
       <set comment="band 6">
        <r>  0.0804  0.0318  0.0002  0.0007  0.0000  0.0000  0.0000  0.0000  0.0000 </r>
        <r>  0.0804  0.0318  0.0002  0.0007  0.0000  0.0000  0.0000  0.0000  0.0000 </r>
       </set>
       <set comment="band 7">
        <r>  0.0004  0.0002  0.1654  0.1798  0.0000  0.0000  0.0000  0.0000  0.0000 </r>
        <r>  0.0003  0.0002  0.1796  0.1656  0.0000  0.0000  0.0000  0.0000  0.0000 </r>
       </set>
       <set comment="band 8">
        <r>  0.0003  0.0002  0.1796  0.1656  0.0000  0.0000  0.0000  0.0000  0.0000 </r>
        <r>  0.0004  0.0002  0.1654  0.1798  0.0000  0.0000  0.0000  0.0000  0.0000 </r>
       </set>
       <set comment="band 9">
        <r>  0.0318  0.2550  0.0005  0.0001  0.0000  0.0000  0.0000  0.0000  0.0000 </r>
        <r>  0.0318  0.2550  0.0005  0.0001  0.0000  0.0000  0.0000  0.0000  0.0000 </r>
       </set>
       <set comment="band 10">
        <r>  0.0318  0.2550  0.0005  0.0001  0.0000  0.0000  0.0000  0.0000  0.0000 </r>
        <r>  0.0318  0.2550  0.0005  0.0001  0.0000  0.0000  0.0000  0.0000  0.0000 </r>
       </set>
       <set comment="band 11">
        <r>  0.0000  0.0010  0.0368  0.0311  0.0000  0.0000  0.0000  0.0000  0.0000 </r>
        <r>  0.0000  0.0008  0.0323  0.0355  0.0000  0.0000  0.0000  0.0000  0.0000 </r>
       </set>
       <set comment="band 12">
        <r>  0.0000  0.0008  0.0323  0.0355  0.0000  0.0000  0.0000  0.0000  0.0000 </r>
        <r>  0.0000  0.0010  0.0368  0.0311  0.0000  0.0000  0.0000  0.0000  0.0000 </r>
       </set>
      </set>
      <set comment="kpoint 298">
       <set comment="band 1">
        <r>  0.1143  0.0666  0.0000  0.0000  0.0000  0.0000  0.0000  0.0000  0.0000 </r>
        <r>  0.1145  0.0665  0.0000  0.0000  0.0000  0.0000  0.0000  0.0000  0.0000 </r>
       </set>
       <set comment="band 2">
        <r>  0.1145  0.0665  0.0000  0.0000  0.0000  0.0000  0.0000  0.0000  0.0000 </r>
        <r>  0.1143  0.0666  0.0000  0.0000  0.0000  0.0000  0.0000  0.0000  0.0000 </r>
       </set>
       <set comment="band 3">
        <r>  0.0001  0.0001  0.1032  0.1032  0.0000  0.0000  0.0000  0.0000  0.0000 </r>
        <r>  0.0001  0.0001  0.1033  0.1031  0.0000  0.0000  0.0000  0.0000  0.0000 </r>
       </set>
       <set comment="band 4">
        <r>  0.0001  0.0001  0.1033  0.1031  0.0000  0.0000  0.0000  0.0000  0.0000 </r>
        <r>  0.0001  0.0001  0.1032  0.1032  0.0000  0.0000  0.0000  0.0000  0.0000 </r>
       </set>
       <set comment="band 5">
        <r>  0.0806  0.0318  0.0001  0.0003  0.0000  0.0000  0.0000  0.0000  0.0000 </r>
        <r>  0.0806  0.0318  0.0001  0.0003  0.0000  0.0000  0.0000  0.0000  0.0000 </r>
       </set>
       <set comment="band 6">
        <r>  0.0806  0.0318  0.0001  0.0003  0.0000  0.0000  0.0000  0.0000  0.0000 </r>
        <r>  0.0806  0.0318  0.0001  0.0003  0.0000  0.0000  0.0000  0.0000  0.0000 </r>
       </set>
       <set comment="band 7">
        <r>  0.0002  0.0001  0.1790  0.1668  0.0000  0.0000  0.0000  0.0000  0.0000 </r>
        <r>  0.0002  0.0001  0.1667  0.1790  0.0000  0.0000  0.0000  0.0000  0.0000 </r>
       </set>
       <set comment="band 8">
        <r>  0.0002  0.0001  0.1667  0.1790  0.0000  0.0000  0.0000  0.0000  0.0000 </r>
        <r>  0.0002  0.0001  0.1790  0.1668  0.0000  0.0000  0.0000  0.0000  0.0000 </r>
       </set>
       <set comment="band 9">
        <r>  0.0319  0.2557  0.0002  0.0001  0.0000  0.0000  0.0000  0.0000  0.0000 </r>
        <r>  0.0319  0.2557  0.0002  0.0001  0.0000  0.0000  0.0000  0.0000  0.0000 </r>
       </set>
       <set comment="band 10">
        <r>  0.0319  0.2557  0.0002  0.0001  0.0000  0.0000  0.0000  0.0000  0.0000 </r>
        <r>  0.0319  0.2557  0.0002  0.0001  0.0000  0.0000  0.0000  0.0000  0.0000 </r>
       </set>
       <set comment="band 11">
        <r>  0.0000  0.0006  0.0511  0.0175  0.0000  0.0000  0.0000  0.0000  0.0000 </r>
        <r>  0.0000  0.0002  0.0178  0.0503  0.0000  0.0000  0.0000  0.0000  0.0000 </r>
       </set>
       <set comment="band 12">
        <r>  0.0000  0.0002  0.0178  0.0503  0.0000  0.0000  0.0000  0.0000  0.0000 </r>
        <r>  0.0000  0.0006  0.0511  0.0175  0.0000  0.0000  0.0000  0.0000  0.0000 </r>
       </set>
      </set>
      <set comment="kpoint 299">
       <set comment="band 1">
        <r>  0.1146  0.0665  0.0000  0.0000  0.0000  0.0000  0.0000  0.0000  0.0000 </r>
        <r>  0.1142  0.0667  0.0000  0.0000  0.0000  0.0000  0.0000  0.0000  0.0000 </r>
       </set>
       <set comment="band 2">
        <r>  0.1142  0.0667  0.0000  0.0000  0.0000  0.0000  0.0000  0.0000  0.0000 </r>
        <r>  0.1146  0.0665  0.0000  0.0000  0.0000  0.0000  0.0000  0.0000  0.0000 </r>
       </set>
       <set comment="band 3">
        <r>  0.0000  0.0000  0.1034  0.1033  0.0000  0.0000  0.0000  0.0000  0.0000 </r>
        <r>  0.0000  0.0000  0.1033  0.1034  0.0000  0.0000  0.0000  0.0000  0.0000 </r>
       </set>
       <set comment="band 4">
        <r>  0.0000  0.0000  0.1033  0.1034  0.0000  0.0000  0.0000  0.0000  0.0000 </r>
        <r>  0.0000  0.0000  0.1034  0.1033  0.0000  0.0000  0.0000  0.0000  0.0000 </r>
       </set>
       <set comment="band 5">
        <r>  0.0807  0.0318  0.0000  0.0001  0.0000  0.0000  0.0000  0.0000  0.0000 </r>
        <r>  0.0807  0.0318  0.0000  0.0001  0.0000  0.0000  0.0000  0.0000  0.0000 </r>
       </set>
       <set comment="band 6">
        <r>  0.0807  0.0318  0.0000  0.0001  0.0000  0.0000  0.0000  0.0000  0.0000 </r>
        <r>  0.0807  0.0318  0.0000  0.0001  0.0000  0.0000  0.0000  0.0000  0.0000 </r>
       </set>
       <set comment="band 7">
        <r>  0.0000  0.0000  0.1716  0.1745  0.0000  0.0000  0.0000  0.0000  0.0000 </r>
        <r>  0.0000  0.0000  0.1745  0.1716  0.0000  0.0000  0.0000  0.0000  0.0000 </r>
       </set>
       <set comment="band 8">
        <r>  0.0000  0.0000  0.1745  0.1716  0.0000  0.0000  0.0000  0.0000  0.0000 </r>
        <r>  0.0000  0.0000  0.1716  0.1745  0.0000  0.0000  0.0000  0.0000  0.0000 </r>
       </set>
       <set comment="band 9">
        <r>  0.0320  0.2561  0.0001  0.0000  0.0000  0.0000  0.0000  0.0000  0.0000 </r>
        <r>  0.0320  0.2561  0.0001  0.0000  0.0000  0.0000  0.0000  0.0000  0.0000 </r>
       </set>
       <set comment="band 10">
        <r>  0.0320  0.2561  0.0001  0.0000  0.0000  0.0000  0.0000  0.0000  0.0000 </r>
        <r>  0.0320  0.2561  0.0001  0.0000  0.0000  0.0000  0.0000  0.0000  0.0000 </r>
       </set>
       <set comment="band 11">
        <r>  0.0000  0.0001  0.0376  0.0310  0.0000  0.0000  0.0000  0.0000  0.0000 </r>
        <r>  0.0000  0.0001  0.0312  0.0375  0.0000  0.0000  0.0000  0.0000  0.0000 </r>
       </set>
       <set comment="band 12">
        <r>  0.0000  0.0001  0.0312  0.0375  0.0000  0.0000  0.0000  0.0000  0.0000 </r>
        <r>  0.0000  0.0001  0.0376  0.0310  0.0000  0.0000  0.0000  0.0000  0.0000 </r>
       </set>
      </set>
      <set comment="kpoint 300">
       <set comment="band 1">
        <r>  0.1144  0.0666  0.0000  0.0000  0.0000  0.0000  0.0000  0.0000  0.0000 </r>
        <r>  0.1144  0.0666  0.0000  0.0000  0.0000  0.0000  0.0000  0.0000  0.0000 </r>
       </set>
       <set comment="band 2">
        <r>  0.1144  0.0666  0.0000  0.0000  0.0000  0.0000  0.0000  0.0000  0.0000 </r>
        <r>  0.1144  0.0666  0.0000  0.0000  0.0000  0.0000  0.0000  0.0000  0.0000 </r>
       </set>
       <set comment="band 3">
        <r>  0.0000  0.0000  0.1033  0.1034  0.0000  0.0000  0.0000  0.0000  0.0000 </r>
        <r>  0.0000  0.0000  0.1034  0.1033  0.0000  0.0000  0.0000  0.0000  0.0000 </r>
       </set>
       <set comment="band 4">
        <r>  0.0000  0.0000  0.1034  0.1033  0.0000  0.0000  0.0000  0.0000  0.0000 </r>
        <r>  0.0000  0.0000  0.1033  0.1034  0.0000  0.0000  0.0000  0.0000  0.0000 </r>
       </set>
       <set comment="band 5">
        <r>  0.0808  0.0318  0.0000  0.0000  0.0000  0.0000  0.0000  0.0000  0.0000 </r>
        <r>  0.0808  0.0318  0.0000  0.0000  0.0000  0.0000  0.0000  0.0000  0.0000 </r>
       </set>
       <set comment="band 6">
        <r>  0.0808  0.0318  0.0000  0.0000  0.0000  0.0000  0.0000  0.0000  0.0000 </r>
        <r>  0.0808  0.0318  0.0000  0.0000  0.0000  0.0000  0.0000  0.0000  0.0000 </r>
       </set>
       <set comment="band 7">
        <r>  0.0000  0.0000  0.1699  0.1763  0.0000  0.0000  0.0000  0.0000  0.0000 </r>
        <r>  0.0000  0.0000  0.1763  0.1699  0.0000  0.0000  0.0000  0.0000  0.0000 </r>
       </set>
       <set comment="band 8">
        <r>  0.0000  0.0000  0.1763  0.1699  0.0000  0.0000  0.0000  0.0000  0.0000 </r>
        <r>  0.0000  0.0000  0.1699  0.1763  0.0000  0.0000  0.0000  0.0000  0.0000 </r>
       </set>
       <set comment="band 9">
        <r>  0.0320  0.2564  0.0000  0.0000  0.0000  0.0000  0.0000  0.0000  0.0000 </r>
        <r>  0.0320  0.2561  0.0000  0.0000  0.0000  0.0000  0.0000  0.0000  0.0000 </r>
       </set>
       <set comment="band 10">
        <r>  0.0320  0.2561  0.0000  0.0000  0.0000  0.0000  0.0000  0.0000  0.0000 </r>
        <r>  0.0320  0.2564  0.0000  0.0000  0.0000  0.0000  0.0000  0.0000  0.0000 </r>
       </set>
       <set comment="band 11">
        <r>  0.0000  0.0000  0.0329  0.0359  0.0000  0.0000  0.0000  0.0000  0.0000 </r>
        <r>  0.0000  0.0000  0.0359  0.0329  0.0000  0.0000  0.0000  0.0000  0.0000 </r>
       </set>
       <set comment="band 12">
        <r>  0.0000  0.0000  0.0359  0.0329  0.0000  0.0000  0.0000  0.0000  0.0000 </r>
        <r>  0.0000  0.0000  0.0329  0.0359  0.0000  0.0000  0.0000  0.0000  0.0000 </r>
       </set>
      </set>
     </set>
    </set>
   </array>
  </projected>
 </calculation>
 <structure name="finalpos" >
  <crystal>
   <varray name="basis" >
    <v>       0.00000000       1.74747244       1.74747244 </v>
    <v>       1.74747244       0.00000000       1.74747244 </v>
    <v>       1.74747244       1.74747244       0.00000000 </v>
   </varray>
   <i name="volume">     10.67237307 </i>
   <varray name="rec_basis" >
    <v>      -0.28612755       0.28612755       0.28612755 </v>
    <v>       0.28612755      -0.28612755       0.28612755 </v>
    <v>       0.28612755       0.28612755      -0.28612755 </v>
   </varray>
  </crystal>
  <varray name="positions" >
   <v>       0.00000000       0.00000000       0.00000000 </v>
   <v>       0.25000000       0.25000000       0.25000000 </v>
  </varray>
 </structure>
</modeling>
