Carbon Diamond (band)                   
           1
     0.000000    1.747472    1.747472
     1.747472    0.000000    1.747472
     1.747472    1.747472    0.000000
   C 
   2
Carbon Diamond (band)                   
           1
     0.000000    1.747472    1.747472
     1.747472    0.000000    1.747472
     1.747472    1.747472    0.000000
   C 
   2
Direct configuration=     1
   0.00000000  0.00000000  0.00000000
   0.25000000  0.25000000  0.25000000
