   2   2   1   0
  0.2044201E+02  0.3866840E-09  0.3866840E-09  0.3866840E-09  0.5000000E-15
  1.000000000000000E-004
  CAR 
 Silicon Diamond (band)                  
     44.24726618     -8.15480678  301      5.86274774      1.00000000
     -8.155  0.0000E+00  0.0000E+00  0.0000E+00  0.0000E+00
     -7.980  0.0000E+00  0.0000E+00  0.0000E+00  0.0000E+00
     -7.805  0.0000E+00  0.0000E+00  0.0000E+00  0.0000E+00
     -7.631  0.0000E+00  0.0000E+00  0.0000E+00  0.0000E+00
     -7.456  0.0000E+00  0.0000E+00  0.0000E+00  0.0000E+00
     -7.281  0.0000E+00  0.0000E+00  0.0000E+00  0.0000E+00
     -7.107  0.0000E+00  0.0000E+00  0.0000E+00  0.0000E+00
     -6.932  0.0000E+00  0.0000E+00  0.0000E+00  0.0000E+00
     -6.757  0.0000E+00  0.0000E+00  0.0000E+00  0.0000E+00
     -6.583  0.0000E+00  0.0000E+00  0.0000E+00  0.0000E+00
     -6.408  0.1475E-09  0.1464E-09  0.2577E-10  0.2557E-10
     -6.233  0.3051E-01  0.3044E-01  0.5329E-02  0.5318E-02
     -6.059  0.5138E+00  0.5138E+00  0.9508E-01  0.9506E-01
     -5.884  0.2671E+00  0.2671E+00  0.1417E+00  0.1417E+00
     -5.709  0.1973E+00  0.1973E+00  0.1762E+00  0.1762E+00
     -5.535  0.1652E+00  0.1652E+00  0.2050E+00  0.2050E+00
     -5.360  0.1454E+00  0.1454E+00  0.2304E+00  0.2304E+00
     -5.185  0.1323E+00  0.1323E+00  0.2535E+00  0.2535E+00
     -5.011  0.1228E+00  0.1228E+00  0.2750E+00  0.2750E+00
     -4.836  0.1159E+00  0.1159E+00  0.2952E+00  0.2952E+00
     -4.661  0.1121E+00  0.1121E+00  0.3148E+00  0.3148E+00
     -4.487  0.1081E+00  0.1081E+00  0.3337E+00  0.3337E+00
     -4.312  0.1053E+00  0.1053E+00  0.3521E+00  0.3521E+00
     -4.137  0.1131E+00  0.1131E+00  0.3719E+00  0.3719E+00
     -3.963  0.1391E+00  0.1390E+00  0.3962E+00  0.3961E+00
     -3.788  0.3472E+00  0.3472E+00  0.4568E+00  0.4568E+00
     -3.613  0.1770E+00  0.1770E+00  0.4877E+00  0.4877E+00
     -3.439  0.1480E+00  0.1480E+00  0.5136E+00  0.5136E+00
     -3.264  0.1335E+00  0.1335E+00  0.5369E+00  0.5369E+00
     -3.089  0.1217E+00  0.1217E+00  0.5582E+00  0.5581E+00
     -2.915  0.1179E+00  0.1179E+00  0.5787E+00  0.5787E+00
     -2.740  0.1189E+00  0.1189E+00  0.5995E+00  0.5995E+00
     -2.565  0.1303E+00  0.1302E+00  0.6223E+00  0.6222E+00
     -2.391  0.2429E+00  0.2429E+00  0.6647E+00  0.6647E+00
     -2.216  0.3652E+00  0.3651E+00  0.7285E+00  0.7284E+00
     -2.041  0.2014E+01  0.2013E+01  0.1080E+01  0.1080E+01
     -1.867  0.1209E+01  0.1210E+01  0.1291E+01  0.1291E+01
     -1.692  0.2576E+00  0.2576E+00  0.1336E+01  0.1336E+01
     -1.517  0.2260E+00  0.2260E+00  0.1376E+01  0.1376E+01
     -1.343  0.1376E+00  0.1376E+00  0.1400E+01  0.1400E+01
     -1.168  0.5112E+00  0.5111E+00  0.1489E+01  0.1489E+01
     -0.993  0.4570E+00  0.4571E+00  0.1569E+01  0.1569E+01
     -0.819  0.8928E-01  0.8929E-01  0.1585E+01  0.1585E+01
     -0.644  0.8062E-01  0.8062E-01  0.1599E+01  0.1599E+01
     -0.469  0.7576E-01  0.7577E-01  0.1612E+01  0.1612E+01
     -0.294  0.7031E-01  0.7030E-01  0.1624E+01  0.1624E+01
     -0.120  0.7384E-01  0.7383E-01  0.1637E+01  0.1637E+01
      0.055  0.6605E-01  0.6606E-01  0.1649E+01  0.1649E+01
      0.230  0.6090E-01  0.6090E-01  0.1659E+01  0.1659E+01
      0.404  0.6278E-01  0.6277E-01  0.1670E+01  0.1670E+01
      0.579  0.6376E-01  0.6376E-01  0.1681E+01  0.1681E+01
      0.754  0.6179E-01  0.6179E-01  0.1692E+01  0.1692E+01
      0.928  0.5936E-01  0.5937E-01  0.1703E+01  0.1703E+01
      1.103  0.5774E-01  0.5774E-01  0.1713E+01  0.1713E+01
      1.278  0.7336E-01  0.7336E-01  0.1725E+01  0.1725E+01
      1.452  0.2785E+00  0.2785E+00  0.1774E+01  0.1774E+01
      1.627  0.3936E+00  0.3936E+00  0.1843E+01  0.1843E+01
      1.802  0.3992E+00  0.3992E+00  0.1913E+01  0.1913E+01
      1.976  0.7994E+00  0.7994E+00  0.2052E+01  0.2052E+01
      2.151  0.5685E+00  0.5685E+00  0.2152E+01  0.2152E+01
      2.326  0.4903E+00  0.4903E+00  0.2237E+01  0.2237E+01
      2.500  0.4769E+00  0.4769E+00  0.2320E+01  0.2320E+01
      2.675  0.5073E+00  0.5072E+00  0.2409E+01  0.2409E+01
      2.850  0.1109E+01  0.1109E+01  0.2603E+01  0.2603E+01
      3.024  0.9383E+00  0.9387E+00  0.2767E+01  0.2767E+01
      3.199  0.5528E+00  0.5529E+00  0.2863E+01  0.2863E+01
      3.374  0.3977E+00  0.3978E+00  0.2933E+01  0.2933E+01
      3.548  0.3197E+00  0.3197E+00  0.2989E+01  0.2989E+01
      3.723  0.3037E+00  0.3037E+00  0.3042E+01  0.3042E+01
      3.898  0.3007E+00  0.3007E+00  0.3094E+01  0.3094E+01
      4.072  0.3048E+00  0.3048E+00  0.3147E+01  0.3147E+01
      4.247  0.3225E+00  0.3225E+00  0.3204E+01  0.3204E+01
      4.422  0.4797E+00  0.4795E+00  0.3288E+01  0.3287E+01
      4.596  0.7990E+00  0.7992E+00  0.3427E+01  0.3427E+01
      4.771  0.4642E+00  0.4642E+00  0.3508E+01  0.3508E+01
      4.946  0.4134E+00  0.4135E+00  0.3580E+01  0.3580E+01
      5.120  0.4039E+00  0.4039E+00  0.3651E+01  0.3651E+01
      5.295  0.4246E+00  0.4246E+00  0.3725E+01  0.3725E+01
      5.470  0.5133E+00  0.5132E+00  0.3815E+01  0.3815E+01
      5.644  0.9645E+00  0.9645E+00  0.3983E+01  0.3983E+01
      5.819  0.9596E-01  0.9616E-01  0.4000E+01  0.4000E+01
      5.994  0.1820E-08  0.1835E-08  0.4000E+01  0.4000E+01
      6.168  0.4108E-02  0.4128E-02  0.4001E+01  0.4001E+01
      6.343  0.3568E+00  0.3572E+00  0.4063E+01  0.4063E+01
      6.518  0.1098E+01  0.1098E+01  0.4255E+01  0.4255E+01
      6.692  0.6000E+00  0.5999E+00  0.4360E+01  0.4360E+01
      6.867  0.4655E+00  0.4655E+00  0.4441E+01  0.4441E+01
      7.042  0.3205E+00  0.3204E+00  0.4497E+01  0.4497E+01
      7.216  0.5875E+00  0.5875E+00  0.4600E+01  0.4600E+01
      7.391  0.4300E+00  0.4300E+00  0.4675E+01  0.4675E+01
      7.566  0.3771E+00  0.3771E+00  0.4741E+01  0.4741E+01
      7.740  0.3612E+00  0.3612E+00  0.4804E+01  0.4804E+01
      7.915  0.3552E+00  0.3552E+00  0.4866E+01  0.4866E+01
      8.090  0.3837E+00  0.3837E+00  0.4933E+01  0.4933E+01
      8.265  0.1189E+01  0.1188E+01  0.5140E+01  0.5140E+01
      8.439  0.7806E+00  0.7807E+00  0.5277E+01  0.5277E+01
      8.614  0.7755E+00  0.7754E+00  0.5412E+01  0.5412E+01
      8.789  0.8489E+00  0.8489E+00  0.5560E+01  0.5560E+01
      8.963  0.1084E+01  0.1083E+01  0.5750E+01  0.5750E+01
      9.138  0.1495E+01  0.1495E+01  0.6011E+01  0.6011E+01
      9.313  0.6543E+00  0.6546E+00  0.6125E+01  0.6125E+01
      9.487  0.4388E+00  0.4388E+00  0.6202E+01  0.6202E+01
      9.662  0.4311E+00  0.4311E+00  0.6277E+01  0.6277E+01
      9.837  0.4749E+00  0.4750E+00  0.6360E+01  0.6360E+01
     10.011  0.4588E+00  0.4588E+00  0.6440E+01  0.6440E+01
     10.186  0.1768E+00  0.1767E+00  0.6471E+01  0.6471E+01
     10.361  0.1666E+00  0.1666E+00  0.6500E+01  0.6500E+01
     10.535  0.2535E+00  0.2534E+00  0.6545E+01  0.6545E+01
     10.710  0.3926E+00  0.3927E+00  0.6613E+01  0.6613E+01
     10.885  0.2923E+00  0.2923E+00  0.6664E+01  0.6664E+01
     11.059  0.3121E+00  0.3121E+00  0.6719E+01  0.6719E+01
     11.234  0.3829E+00  0.3829E+00  0.6786E+01  0.6786E+01
     11.409  0.3538E+00  0.3537E+00  0.6847E+01  0.6847E+01
     11.583  0.2959E+00  0.2959E+00  0.6899E+01  0.6899E+01
     11.758  0.3901E+00  0.3902E+00  0.6967E+01  0.6967E+01
     11.933  0.4276E+00  0.4274E+00  0.7042E+01  0.7042E+01
     12.107  0.3983E+00  0.3983E+00  0.7111E+01  0.7111E+01
     12.282  0.3690E+00  0.3690E+00  0.7176E+01  0.7176E+01
     12.457  0.3516E+00  0.3515E+00  0.7237E+01  0.7237E+01
     12.631  0.4117E+00  0.4117E+00  0.7309E+01  0.7309E+01
     12.806  0.7625E+00  0.7625E+00  0.7442E+01  0.7442E+01
     12.981  0.6028E+00  0.6028E+00  0.7548E+01  0.7548E+01
     13.155  0.6356E+00  0.6356E+00  0.7659E+01  0.7659E+01
     13.330  0.1113E+01  0.1113E+01  0.7853E+01  0.7853E+01
     13.505  0.1132E+01  0.1133E+01  0.8051E+01  0.8051E+01
     13.679  0.8651E+00  0.8645E+00  0.8202E+01  0.8202E+01
     13.854  0.6459E+00  0.6457E+00  0.8315E+01  0.8315E+01
     14.029  0.5389E+00  0.5388E+00  0.8409E+01  0.8409E+01
     14.203  0.5821E+00  0.5821E+00  0.8511E+01  0.8511E+01
     14.378  0.5428E+00  0.5429E+00  0.8605E+01  0.8605E+01
     14.553  0.6973E+00  0.6975E+00  0.8727E+01  0.8727E+01
     14.727  0.7167E+00  0.7166E+00  0.8852E+01  0.8852E+01
     14.902  0.5493E+00  0.5491E+00  0.8948E+01  0.8948E+01
     15.077  0.5605E+00  0.5604E+00  0.9046E+01  0.9046E+01
     15.251  0.5760E+00  0.5760E+00  0.9147E+01  0.9147E+01
     15.426  0.7106E+00  0.7106E+00  0.9271E+01  0.9271E+01
     15.601  0.1086E+01  0.1086E+01  0.9461E+01  0.9461E+01
     15.775  0.4130E+00  0.4131E+00  0.9533E+01  0.9533E+01
     15.950  0.4226E+00  0.4221E+00  0.9607E+01  0.9607E+01
     16.125  0.1767E+01  0.1767E+01  0.9915E+01  0.9915E+01
     16.299  0.9239E+00  0.9242E+00  0.1008E+02  0.1008E+02
     16.474  0.6393E+00  0.6392E+00  0.1019E+02  0.1019E+02
     16.649  0.8005E+00  0.8068E+00  0.1033E+02  0.1033E+02
     16.824  0.7755E+00  0.7584E+00  0.1046E+02  0.1046E+02
     16.998  0.7427E+00  0.7494E+00  0.1059E+02  0.1059E+02
     17.173  0.4679E+00  0.4721E+00  0.1068E+02  0.1068E+02
     17.348  0.4173E+00  0.4174E+00  0.1075E+02  0.1075E+02
     17.522  0.3654E+00  0.3645E+00  0.1081E+02  0.1081E+02
     17.697  0.3210E+00  0.3203E+00  0.1087E+02  0.1087E+02
     17.872  0.2842E+00  0.2866E+00  0.1092E+02  0.1092E+02
     18.046  0.3082E+00  0.3140E+00  0.1097E+02  0.1097E+02
     18.221  0.9525E+00  0.9418E+00  0.1114E+02  0.1114E+02
     18.396  0.1148E+01  0.1148E+01  0.1134E+02  0.1134E+02
     18.570  0.1044E+01  0.1073E+01  0.1152E+02  0.1152E+02
     18.745  0.3297E+00  0.3046E+00  0.1158E+02  0.1158E+02
     18.920  0.3359E+00  0.3373E+00  0.1164E+02  0.1164E+02
     19.094  0.3352E+00  0.3287E+00  0.1170E+02  0.1169E+02
     19.269  0.2700E+00  0.2810E+00  0.1174E+02  0.1174E+02
     19.444  0.2747E+00  0.2669E+00  0.1179E+02  0.1179E+02
     19.618  0.2249E+00  0.2115E+00  0.1183E+02  0.1183E+02
     19.793  0.2146E+00  0.2336E+00  0.1187E+02  0.1187E+02
     19.968  0.2388E+00  0.2127E+00  0.1191E+02  0.1191E+02
     20.142  0.2007E+00  0.2142E+00  0.1194E+02  0.1194E+02
     20.317  0.1533E+00  0.1533E+00  0.1197E+02  0.1197E+02
     20.492  0.7532E-01  0.8122E-01  0.1198E+02  0.1198E+02
     20.666  0.3472E-01  0.3812E-01  0.1199E+02  0.1199E+02
     20.841  0.3993E-01  0.3381E-01  0.1200E+02  0.1200E+02
     21.016  0.1663E-01  0.2263E-01  0.1200E+02  0.1200E+02
     21.190  0.1284E-05  0.6273E-07  0.1200E+02  0.1200E+02
     21.365  0.0000E+00  0.0000E+00  0.1200E+02  0.1200E+02
     21.540  0.0000E+00  0.0000E+00  0.1200E+02  0.1200E+02
     21.714  0.0000E+00  0.0000E+00  0.1200E+02  0.1200E+02
     21.889  0.0000E+00  0.0000E+00  0.1200E+02  0.1200E+02
     22.064  0.0000E+00  0.0000E+00  0.1200E+02  0.1200E+02
     22.238  0.0000E+00  0.0000E+00  0.1200E+02  0.1200E+02
     22.413  0.0000E+00  0.0000E+00  0.1200E+02  0.1200E+02
     22.588  0.0000E+00  0.0000E+00  0.1200E+02  0.1200E+02
     22.762  0.0000E+00  0.0000E+00  0.1200E+02  0.1200E+02
     22.937  0.0000E+00  0.0000E+00  0.1200E+02  0.1200E+02
     23.112  0.0000E+00  0.0000E+00  0.1200E+02  0.1200E+02
     23.286  0.0000E+00  0.0000E+00  0.1200E+02  0.1200E+02
     23.461  0.0000E+00  0.0000E+00  0.1200E+02  0.1200E+02
     23.636  0.0000E+00  0.0000E+00  0.1200E+02  0.1200E+02
     23.810  0.0000E+00  0.0000E+00  0.1200E+02  0.1200E+02
     23.985  0.0000E+00  0.0000E+00  0.1200E+02  0.1200E+02
     24.160  0.0000E+00  0.0000E+00  0.1200E+02  0.1200E+02
     24.334  0.0000E+00  0.0000E+00  0.1200E+02  0.1200E+02
     24.509  0.0000E+00  0.0000E+00  0.1200E+02  0.1200E+02
     24.684  0.0000E+00  0.0000E+00  0.1200E+02  0.1200E+02
     24.858  0.0000E+00  0.0000E+00  0.1200E+02  0.1200E+02
     25.033  0.0000E+00  0.0000E+00  0.1200E+02  0.1200E+02
     25.208  0.0000E+00  0.0000E+00  0.1200E+02  0.1200E+02
     25.383  0.0000E+00  0.0000E+00  0.1200E+02  0.1200E+02
     25.557  0.0000E+00  0.0000E+00  0.1200E+02  0.1200E+02
     25.732  0.0000E+00  0.0000E+00  0.1200E+02  0.1200E+02
     25.907  0.0000E+00  0.0000E+00  0.1200E+02  0.1200E+02
     26.081  0.0000E+00  0.0000E+00  0.1200E+02  0.1200E+02
     26.256  0.0000E+00  0.0000E+00  0.1200E+02  0.1200E+02
     26.431  0.0000E+00  0.0000E+00  0.1200E+02  0.1200E+02
     26.605  0.0000E+00  0.0000E+00  0.1200E+02  0.1200E+02
     26.780  0.0000E+00  0.0000E+00  0.1200E+02  0.1200E+02
     26.955  0.0000E+00  0.0000E+00  0.1200E+02  0.1200E+02
     27.129  0.0000E+00  0.0000E+00  0.1200E+02  0.1200E+02
     27.304  0.0000E+00  0.0000E+00  0.1200E+02  0.1200E+02
     27.479  0.0000E+00  0.0000E+00  0.1200E+02  0.1200E+02
     27.653  0.0000E+00  0.0000E+00  0.1200E+02  0.1200E+02
     27.828  0.0000E+00  0.0000E+00  0.1200E+02  0.1200E+02
     28.003  0.0000E+00  0.0000E+00  0.1200E+02  0.1200E+02
     28.177  0.0000E+00  0.0000E+00  0.1200E+02  0.1200E+02
     28.352  0.0000E+00  0.0000E+00  0.1200E+02  0.1200E+02
     28.527  0.0000E+00  0.0000E+00  0.1200E+02  0.1200E+02
     28.701  0.0000E+00  0.0000E+00  0.1200E+02  0.1200E+02
     28.876  0.0000E+00  0.0000E+00  0.1200E+02  0.1200E+02
     29.051  0.0000E+00  0.0000E+00  0.1200E+02  0.1200E+02
     29.225  0.0000E+00  0.0000E+00  0.1200E+02  0.1200E+02
     29.400  0.0000E+00  0.0000E+00  0.1200E+02  0.1200E+02
     29.575  0.0000E+00  0.0000E+00  0.1200E+02  0.1200E+02
     29.749  0.0000E+00  0.0000E+00  0.1200E+02  0.1200E+02
     29.924  0.0000E+00  0.0000E+00  0.1200E+02  0.1200E+02
     30.099  0.0000E+00  0.0000E+00  0.1200E+02  0.1200E+02
     30.273  0.0000E+00  0.0000E+00  0.1200E+02  0.1200E+02
     30.448  0.0000E+00  0.0000E+00  0.1200E+02  0.1200E+02
     30.623  0.0000E+00  0.0000E+00  0.1200E+02  0.1200E+02
     30.797  0.0000E+00  0.0000E+00  0.1200E+02  0.1200E+02
     30.972  0.0000E+00  0.0000E+00  0.1200E+02  0.1200E+02
     31.147  0.0000E+00  0.0000E+00  0.1200E+02  0.1200E+02
     31.321  0.0000E+00  0.0000E+00  0.1200E+02  0.1200E+02
     31.496  0.0000E+00  0.0000E+00  0.1200E+02  0.1200E+02
     31.671  0.0000E+00  0.0000E+00  0.1200E+02  0.1200E+02
     31.845  0.0000E+00  0.0000E+00  0.1200E+02  0.1200E+02
     32.020  0.0000E+00  0.0000E+00  0.1200E+02  0.1200E+02
     32.195  0.0000E+00  0.0000E+00  0.1200E+02  0.1200E+02
     32.369  0.0000E+00  0.0000E+00  0.1200E+02  0.1200E+02
     32.544  0.0000E+00  0.0000E+00  0.1200E+02  0.1200E+02
     32.719  0.0000E+00  0.0000E+00  0.1200E+02  0.1200E+02
     32.893  0.0000E+00  0.0000E+00  0.1200E+02  0.1200E+02
     33.068  0.0000E+00  0.0000E+00  0.1200E+02  0.1200E+02
     33.243  0.0000E+00  0.0000E+00  0.1200E+02  0.1200E+02
     33.418  0.0000E+00  0.0000E+00  0.1200E+02  0.1200E+02
     33.592  0.0000E+00  0.0000E+00  0.1200E+02  0.1200E+02
     33.767  0.0000E+00  0.0000E+00  0.1200E+02  0.1200E+02
     33.942  0.0000E+00  0.0000E+00  0.1200E+02  0.1200E+02
     34.116  0.0000E+00  0.0000E+00  0.1200E+02  0.1200E+02
     34.291  0.0000E+00  0.0000E+00  0.1200E+02  0.1200E+02
     34.466  0.0000E+00  0.0000E+00  0.1200E+02  0.1200E+02
     34.640  0.0000E+00  0.0000E+00  0.1200E+02  0.1200E+02
     34.815  0.0000E+00  0.0000E+00  0.1200E+02  0.1200E+02
     34.990  0.0000E+00  0.0000E+00  0.1200E+02  0.1200E+02
     35.164  0.0000E+00  0.0000E+00  0.1200E+02  0.1200E+02
     35.339  0.0000E+00  0.0000E+00  0.1200E+02  0.1200E+02
     35.514  0.0000E+00  0.0000E+00  0.1200E+02  0.1200E+02
     35.688  0.0000E+00  0.0000E+00  0.1200E+02  0.1200E+02
     35.863  0.0000E+00  0.0000E+00  0.1200E+02  0.1200E+02
     36.038  0.0000E+00  0.0000E+00  0.1200E+02  0.1200E+02
     36.212  0.0000E+00  0.0000E+00  0.1200E+02  0.1200E+02
     36.387  0.0000E+00  0.0000E+00  0.1200E+02  0.1200E+02
     36.562  0.0000E+00  0.0000E+00  0.1200E+02  0.1200E+02
     36.736  0.0000E+00  0.0000E+00  0.1200E+02  0.1200E+02
     36.911  0.0000E+00  0.0000E+00  0.1200E+02  0.1200E+02
     37.086  0.0000E+00  0.0000E+00  0.1200E+02  0.1200E+02
     37.260  0.0000E+00  0.0000E+00  0.1200E+02  0.1200E+02
     37.435  0.0000E+00  0.0000E+00  0.1200E+02  0.1200E+02
     37.610  0.0000E+00  0.0000E+00  0.1200E+02  0.1200E+02
     37.784  0.0000E+00  0.0000E+00  0.1200E+02  0.1200E+02
     37.959  0.0000E+00  0.0000E+00  0.1200E+02  0.1200E+02
     38.134  0.0000E+00  0.0000E+00  0.1200E+02  0.1200E+02
     38.308  0.0000E+00  0.0000E+00  0.1200E+02  0.1200E+02
     38.483  0.0000E+00  0.0000E+00  0.1200E+02  0.1200E+02
     38.658  0.0000E+00  0.0000E+00  0.1200E+02  0.1200E+02
     38.832  0.0000E+00  0.0000E+00  0.1200E+02  0.1200E+02
     39.007  0.0000E+00  0.0000E+00  0.1200E+02  0.1200E+02
     39.182  0.0000E+00  0.0000E+00  0.1200E+02  0.1200E+02
     39.356  0.0000E+00  0.0000E+00  0.1200E+02  0.1200E+02
     39.531  0.0000E+00  0.0000E+00  0.1200E+02  0.1200E+02
     39.706  0.0000E+00  0.0000E+00  0.1200E+02  0.1200E+02
     39.880  0.0000E+00  0.0000E+00  0.1200E+02  0.1200E+02
     40.055  0.0000E+00  0.0000E+00  0.1200E+02  0.1200E+02
     40.230  0.0000E+00  0.0000E+00  0.1200E+02  0.1200E+02
     40.404  0.0000E+00  0.0000E+00  0.1200E+02  0.1200E+02
     40.579  0.0000E+00  0.0000E+00  0.1200E+02  0.1200E+02
     40.754  0.0000E+00  0.0000E+00  0.1200E+02  0.1200E+02
     40.928  0.0000E+00  0.0000E+00  0.1200E+02  0.1200E+02
     41.103  0.0000E+00  0.0000E+00  0.1200E+02  0.1200E+02
     41.278  0.0000E+00  0.0000E+00  0.1200E+02  0.1200E+02
     41.452  0.0000E+00  0.0000E+00  0.1200E+02  0.1200E+02
     41.627  0.0000E+00  0.0000E+00  0.1200E+02  0.1200E+02
     41.802  0.0000E+00  0.0000E+00  0.1200E+02  0.1200E+02
     41.977  0.0000E+00  0.0000E+00  0.1200E+02  0.1200E+02
     42.151  0.0000E+00  0.0000E+00  0.1200E+02  0.1200E+02
     42.326  0.0000E+00  0.0000E+00  0.1200E+02  0.1200E+02
     42.501  0.0000E+00  0.0000E+00  0.1200E+02  0.1200E+02
     42.675  0.0000E+00  0.0000E+00  0.1200E+02  0.1200E+02
     42.850  0.0000E+00  0.0000E+00  0.1200E+02  0.1200E+02
     43.025  0.0000E+00  0.0000E+00  0.1200E+02  0.1200E+02
     43.199  0.0000E+00  0.0000E+00  0.1200E+02  0.1200E+02
     43.374  0.0000E+00  0.0000E+00  0.1200E+02  0.1200E+02
     43.549  0.0000E+00  0.0000E+00  0.1200E+02  0.1200E+02
     43.723  0.0000E+00  0.0000E+00  0.1200E+02  0.1200E+02
     43.898  0.0000E+00  0.0000E+00  0.1200E+02  0.1200E+02
     44.073  0.0000E+00  0.0000E+00  0.1200E+02  0.1200E+02
     44.247  0.0000E+00  0.0000E+00  0.1200E+02  0.1200E+02
     44.24726618     -8.15480678  301      5.86274774      1.00000000
     -8.155  0.0000E+00  0.0000E+00  0.0000E+00  0.0000E+00  0.0000E+00  0.0000E+00  0.0000E+00  0.0000E+00  0.0000E+00  0.0000E+00  0.0000E+00  0.0000E+00  0.0000E+00  0.0000E+00  0.0000E+00  0.0000E+00  0.0000E+00  0.0000E+00
     -7.980  0.0000E+00  0.0000E+00  0.0000E+00  0.0000E+00  0.0000E+00  0.0000E+00  0.0000E+00  0.0000E+00  0.0000E+00  0.0000E+00  0.0000E+00  0.0000E+00  0.0000E+00  0.0000E+00  0.0000E+00  0.0000E+00  0.0000E+00  0.0000E+00
     -7.805  0.0000E+00  0.0000E+00  0.0000E+00  0.0000E+00  0.0000E+00  0.0000E+00  0.0000E+00  0.0000E+00  0.0000E+00  0.0000E+00  0.0000E+00  0.0000E+00  0.0000E+00  0.0000E+00  0.0000E+00  0.0000E+00  0.0000E+00  0.0000E+00
     -7.631  0.0000E+00  0.0000E+00  0.0000E+00  0.0000E+00  0.0000E+00  0.0000E+00  0.0000E+00  0.0000E+00  0.0000E+00  0.0000E+00  0.0000E+00  0.0000E+00  0.0000E+00  0.0000E+00  0.0000E+00  0.0000E+00  0.0000E+00  0.0000E+00
     -7.456  0.0000E+00  0.0000E+00  0.0000E+00  0.0000E+00  0.0000E+00  0.0000E+00  0.0000E+00  0.0000E+00  0.0000E+00  0.0000E+00  0.0000E+00  0.0000E+00  0.0000E+00  0.0000E+00  0.0000E+00  0.0000E+00  0.0000E+00  0.0000E+00
     -7.281  0.0000E+00  0.0000E+00  0.0000E+00  0.0000E+00  0.0000E+00  0.0000E+00  0.0000E+00  0.0000E+00  0.0000E+00  0.0000E+00  0.0000E+00  0.0000E+00  0.0000E+00  0.0000E+00  0.0000E+00  0.0000E+00  0.0000E+00  0.0000E+00
     -7.107  0.0000E+00  0.0000E+00  0.0000E+00  0.0000E+00  0.0000E+00  0.0000E+00  0.0000E+00  0.0000E+00  0.0000E+00  0.0000E+00  0.0000E+00  0.0000E+00  0.0000E+00  0.0000E+00  0.0000E+00  0.0000E+00  0.0000E+00  0.0000E+00
     -6.932  0.0000E+00  0.0000E+00  0.0000E+00  0.0000E+00  0.0000E+00  0.0000E+00  0.0000E+00  0.0000E+00  0.0000E+00  0.0000E+00  0.0000E+00  0.0000E+00  0.0000E+00  0.0000E+00  0.0000E+00  0.0000E+00  0.0000E+00  0.0000E+00
     -6.757  0.0000E+00  0.0000E+00  0.0000E+00  0.0000E+00  0.0000E+00  0.0000E+00  0.0000E+00  0.0000E+00  0.0000E+00  0.0000E+00  0.0000E+00  0.0000E+00  0.0000E+00  0.0000E+00  0.0000E+00  0.0000E+00  0.0000E+00  0.0000E+00
     -6.583  0.0000E+00  0.0000E+00  0.0000E+00  0.0000E+00  0.0000E+00  0.0000E+00  0.0000E+00  0.0000E+00  0.0000E+00  0.0000E+00  0.0000E+00  0.0000E+00  0.0000E+00  0.0000E+00  0.0000E+00  0.0000E+00  0.0000E+00  0.0000E+00
     -6.408  0.3126E-10  0.3102E-10  0.2039E-14  0.2023E-14  0.4230E-15  0.4195E-15  0.9406E-15  0.9330E-15  0.0000E+00  0.0000E+00  0.0000E+00  0.0000E+00  0.0000E+00  0.0000E+00  0.0000E+00  0.0000E+00  0.0000E+00  0.0000E+00
     -6.233  0.6465E-02  0.6451E-02  0.1440E-05  0.1436E-05  0.2988E-06  0.2980E-06  0.6637E-06  0.6620E-06  0.0000E+00  0.0000E+00  0.0000E+00  0.0000E+00  0.0000E+00  0.0000E+00  0.0000E+00  0.0000E+00  0.0000E+00  0.0000E+00
     -6.059  0.1088E+00  0.1088E+00  0.1578E-03  0.1577E-03  0.3282E-04  0.3281E-04  0.7258E-04  0.7255E-04  0.0000E+00  0.0000E+00  0.0000E+00  0.0000E+00  0.0000E+00  0.0000E+00  0.0000E+00  0.0000E+00  0.0000E+00  0.0000E+00
     -5.884  0.5634E-01  0.5634E-01  0.3711E-03  0.3711E-03  0.7763E-04  0.7762E-04  0.1699E-03  0.1699E-03  0.0000E+00  0.0000E+00  0.0000E+00  0.0000E+00  0.0000E+00  0.0000E+00  0.0000E+00  0.0000E+00  0.0000E+00  0.0000E+00
     -5.709  0.4145E-01  0.4145E-01  0.4962E-03  0.4961E-03  0.1046E-03  0.1046E-03  0.2259E-03  0.2258E-03  0.0000E+00  0.0000E+00  0.0000E+00  0.0000E+00  0.0000E+00  0.0000E+00  0.0000E+00  0.0000E+00  0.0000E+00  0.0000E+00
     -5.535  0.3460E-01  0.3460E-01  0.5943E-03  0.5942E-03  0.1264E-03  0.1264E-03  0.2688E-03  0.2688E-03  0.0000E+00  0.0000E+00  0.0000E+00  0.0000E+00  0.0000E+00  0.0000E+00  0.0000E+00  0.0000E+00  0.0000E+00  0.0000E+00
     -5.360  0.3037E-01  0.3037E-01  0.6750E-03  0.6750E-03  0.1457E-03  0.1457E-03  0.3036E-03  0.3036E-03  0.0000E+00  0.0000E+00  0.0000E+00  0.0000E+00  0.0000E+00  0.0000E+00  0.0000E+00  0.0000E+00  0.0000E+00  0.0000E+00
     -5.185  0.2757E-01  0.2757E-01  0.7486E-03  0.7485E-03  0.1636E-03  0.1636E-03  0.3339E-03  0.3339E-03  0.0000E+00  0.0000E+00  0.0000E+00  0.0000E+00  0.0000E+00  0.0000E+00  0.0000E+00  0.0000E+00  0.0000E+00  0.0000E+00
     -5.011  0.2556E-01  0.2556E-01  0.8134E-03  0.8134E-03  0.1812E-03  0.1812E-03  0.3608E-03  0.3608E-03  0.0000E+00  0.0000E+00  0.0000E+00  0.0000E+00  0.0000E+00  0.0000E+00  0.0000E+00  0.0000E+00  0.0000E+00  0.0000E+00
     -4.836  0.2411E-01  0.2411E-01  0.8718E-03  0.8717E-03  0.1988E-03  0.1988E-03  0.3866E-03  0.3866E-03  0.0000E+00  0.0000E+00  0.0000E+00  0.0000E+00  0.0000E+00  0.0000E+00  0.0000E+00  0.0000E+00  0.0000E+00  0.0000E+00
     -4.661  0.2332E-01  0.2332E-01  0.9397E-03  0.9397E-03  0.2193E-03  0.2193E-03  0.4132E-03  0.4132E-03  0.0000E+00  0.0000E+00  0.0000E+00  0.0000E+00  0.0000E+00  0.0000E+00  0.0000E+00  0.0000E+00  0.0000E+00  0.0000E+00
     -4.487  0.2251E-01  0.2251E-01  0.9975E-03  0.9974E-03  0.2389E-03  0.2389E-03  0.4251E-03  0.4251E-03  0.0000E+00  0.0000E+00  0.0000E+00  0.0000E+00  0.0000E+00  0.0000E+00  0.0000E+00  0.0000E+00  0.0000E+00  0.0000E+00
     -4.312  0.2203E-01  0.2203E-01  0.1011E-02  0.1011E-02  0.2658E-03  0.2658E-03  0.4522E-03  0.4522E-03  0.0000E+00  0.0000E+00  0.0000E+00  0.0000E+00  0.0000E+00  0.0000E+00  0.0000E+00  0.0000E+00  0.0000E+00  0.0000E+00
     -4.137  0.2379E-01  0.2379E-01  0.1151E-02  0.1151E-02  0.3116E-03  0.3116E-03  0.4984E-03  0.4984E-03  0.0000E+00  0.0000E+00  0.0000E+00  0.0000E+00  0.0000E+00  0.0000E+00  0.0000E+00  0.0000E+00  0.0000E+00  0.0000E+00
     -3.963  0.2986E-01  0.2985E-01  0.1232E-02  0.1232E-02  0.4698E-03  0.4695E-03  0.6288E-03  0.6286E-03  0.0000E+00  0.0000E+00  0.0000E+00  0.0000E+00  0.0000E+00  0.0000E+00  0.0000E+00  0.0000E+00  0.0000E+00  0.0000E+00
     -3.788  0.7639E-01  0.7640E-01  0.2362E-02  0.2362E-02  0.1469E-02  0.1469E-02  0.1515E-02  0.1515E-02  0.0000E+00  0.0000E+00  0.0000E+00  0.0000E+00  0.0000E+00  0.0000E+00  0.0000E+00  0.0000E+00  0.0000E+00  0.0000E+00
     -3.613  0.3836E-01  0.3837E-01  0.1669E-02  0.1669E-02  0.9017E-03  0.9018E-03  0.7309E-03  0.7310E-03  0.0000E+00  0.0000E+00  0.0000E+00  0.0000E+00  0.0000E+00  0.0000E+00  0.0000E+00  0.0000E+00  0.0000E+00  0.0000E+00
     -3.439  0.3173E-01  0.3174E-01  0.1712E-02  0.1712E-02  0.8862E-03  0.8862E-03  0.5861E-03  0.5862E-03  0.0000E+00  0.0000E+00  0.0000E+00  0.0000E+00  0.0000E+00  0.0000E+00  0.0000E+00  0.0000E+00  0.0000E+00  0.0000E+00
     -3.264  0.2840E-01  0.2840E-01  0.1790E-02  0.1790E-02  0.9269E-03  0.9268E-03  0.4835E-03  0.4834E-03  0.0000E+00  0.0000E+00  0.0000E+00  0.0000E+00  0.0000E+00  0.0000E+00  0.0000E+00  0.0000E+00  0.0000E+00  0.0000E+00
     -3.089  0.2579E-01  0.2579E-01  0.1717E-02  0.1717E-02  0.1013E-02  0.1013E-02  0.4261E-03  0.4261E-03  0.0000E+00  0.0000E+00  0.0000E+00  0.0000E+00  0.0000E+00  0.0000E+00  0.0000E+00  0.0000E+00  0.0000E+00  0.0000E+00
     -2.915  0.2488E-01  0.2488E-01  0.1756E-02  0.1755E-02  0.1156E-02  0.1156E-02  0.3872E-03  0.3872E-03  0.0000E+00  0.0000E+00  0.0000E+00  0.0000E+00  0.0000E+00  0.0000E+00  0.0000E+00  0.0000E+00  0.0000E+00  0.0000E+00
     -2.740  0.2496E-01  0.2496E-01  0.1904E-02  0.1904E-02  0.1343E-02  0.1343E-02  0.3404E-03  0.3404E-03  0.0000E+00  0.0000E+00  0.0000E+00  0.0000E+00  0.0000E+00  0.0000E+00  0.0000E+00  0.0000E+00  0.0000E+00  0.0000E+00
     -2.565  0.2724E-01  0.2723E-01  0.2182E-02  0.2181E-02  0.1686E-02  0.1685E-02  0.3358E-03  0.3357E-03  0.0000E+00  0.0000E+00  0.0000E+00  0.0000E+00  0.0000E+00  0.0000E+00  0.0000E+00  0.0000E+00  0.0000E+00  0.0000E+00
     -2.391  0.5085E-01  0.5084E-01  0.5714E-02  0.5712E-02  0.1796E-02  0.1797E-02  0.7014E-03  0.7013E-03  0.0000E+00  0.0000E+00  0.0000E+00  0.0000E+00  0.0000E+00  0.0000E+00  0.0000E+00  0.0000E+00  0.0000E+00  0.0000E+00
     -2.216  0.7479E-01  0.7477E-01  0.1164E-01  0.1163E-01  0.1481E-02  0.1481E-02  0.5870E-03  0.5871E-03  0.0000E+00  0.0000E+00  0.0000E+00  0.0000E+00  0.0000E+00  0.0000E+00  0.0000E+00  0.0000E+00  0.0000E+00  0.0000E+00
     -2.041  0.3938E+00  0.3936E+00  0.8270E-01  0.8268E-01  0.3885E-02  0.3880E-02  0.3196E-03  0.3197E-03  0.0000E+00  0.0000E+00  0.0000E+00  0.0000E+00  0.0000E+00  0.0000E+00  0.0000E+00  0.0000E+00  0.0000E+00  0.0000E+00
     -1.867  0.2410E+00  0.2412E+00  0.3929E-01  0.3932E-01  0.1195E-01  0.1195E-01  0.4360E-03  0.4359E-03  0.0000E+00  0.0000E+00  0.0000E+00  0.0000E+00  0.0000E+00  0.0000E+00  0.0000E+00  0.0000E+00  0.0000E+00  0.0000E+00
     -1.692  0.4913E-01  0.4913E-01  0.1007E-01  0.1007E-01  0.1774E-02  0.1774E-02  0.6123E-03  0.6122E-03  0.0000E+00  0.0000E+00  0.0000E+00  0.0000E+00  0.0000E+00  0.0000E+00  0.0000E+00  0.0000E+00  0.0000E+00  0.0000E+00
     -1.517  0.4257E-01  0.4258E-01  0.8051E-02  0.8053E-02  0.2695E-02  0.2695E-02  0.7777E-03  0.7778E-03  0.0000E+00  0.0000E+00  0.0000E+00  0.0000E+00  0.0000E+00  0.0000E+00  0.0000E+00  0.0000E+00  0.0000E+00  0.0000E+00
     -1.343  0.2570E-01  0.2570E-01  0.3305E-02  0.3305E-02  0.3529E-02  0.3529E-02  0.5107E-03  0.5107E-03  0.0000E+00  0.0000E+00  0.0000E+00  0.0000E+00  0.0000E+00  0.0000E+00  0.0000E+00  0.0000E+00  0.0000E+00  0.0000E+00
     -1.168  0.6478E-01  0.6477E-01  0.1484E-01  0.1484E-01  0.1501E-01  0.1500E-01  0.1145E-01  0.1145E-01  0.0000E+00  0.0000E+00  0.0000E+00  0.0000E+00  0.0000E+00  0.0000E+00  0.0000E+00  0.0000E+00  0.0000E+00  0.0000E+00
     -0.993  0.6214E-01  0.6216E-01  0.1328E-01  0.1328E-01  0.1324E-01  0.1324E-01  0.9055E-02  0.9057E-02  0.0000E+00  0.0000E+00  0.0000E+00  0.0000E+00  0.0000E+00  0.0000E+00  0.0000E+00  0.0000E+00  0.0000E+00  0.0000E+00
     -0.819  0.1330E-01  0.1330E-01  0.2657E-02  0.2657E-02  0.2459E-02  0.2459E-02  0.1479E-02  0.1479E-02  0.0000E+00  0.0000E+00  0.0000E+00  0.0000E+00  0.0000E+00  0.0000E+00  0.0000E+00  0.0000E+00  0.0000E+00  0.0000E+00
     -0.644  0.1201E-01  0.1201E-01  0.2559E-02  0.2559E-02  0.2156E-02  0.2156E-02  0.1362E-02  0.1362E-02  0.0000E+00  0.0000E+00  0.0000E+00  0.0000E+00  0.0000E+00  0.0000E+00  0.0000E+00  0.0000E+00  0.0000E+00  0.0000E+00
     -0.469  0.1148E-01  0.1148E-01  0.2470E-02  0.2470E-02  0.2023E-02  0.2024E-02  0.1250E-02  0.1251E-02  0.0000E+00  0.0000E+00  0.0000E+00  0.0000E+00  0.0000E+00  0.0000E+00  0.0000E+00  0.0000E+00  0.0000E+00  0.0000E+00
     -0.294  0.1047E-01  0.1046E-01  0.2473E-02  0.2473E-02  0.1812E-02  0.1812E-02  0.1229E-02  0.1229E-02  0.0000E+00  0.0000E+00  0.0000E+00  0.0000E+00  0.0000E+00  0.0000E+00  0.0000E+00  0.0000E+00  0.0000E+00  0.0000E+00
     -0.120  0.1091E-01  0.1091E-01  0.2627E-02  0.2627E-02  0.1955E-02  0.1955E-02  0.1357E-02  0.1357E-02  0.0000E+00  0.0000E+00  0.0000E+00  0.0000E+00  0.0000E+00  0.0000E+00  0.0000E+00  0.0000E+00  0.0000E+00  0.0000E+00
      0.055  0.9759E-02  0.9761E-02  0.2511E-02  0.2511E-02  0.1686E-02  0.1686E-02  0.1215E-02  0.1215E-02  0.0000E+00  0.0000E+00  0.0000E+00  0.0000E+00  0.0000E+00  0.0000E+00  0.0000E+00  0.0000E+00  0.0000E+00  0.0000E+00
      0.230  0.8945E-02  0.8945E-02  0.2459E-02  0.2459E-02  0.1506E-02  0.1506E-02  0.1137E-02  0.1137E-02  0.0000E+00  0.0000E+00  0.0000E+00  0.0000E+00  0.0000E+00  0.0000E+00  0.0000E+00  0.0000E+00  0.0000E+00  0.0000E+00
      0.404  0.9129E-02  0.9127E-02  0.2579E-02  0.2579E-02  0.1585E-02  0.1584E-02  0.1229E-02  0.1229E-02  0.0000E+00  0.0000E+00  0.0000E+00  0.0000E+00  0.0000E+00  0.0000E+00  0.0000E+00  0.0000E+00  0.0000E+00  0.0000E+00
      0.579  0.9139E-02  0.9139E-02  0.2690E-02  0.2689E-02  0.1626E-02  0.1626E-02  0.1313E-02  0.1313E-02  0.0000E+00  0.0000E+00  0.0000E+00  0.0000E+00  0.0000E+00  0.0000E+00  0.0000E+00  0.0000E+00  0.0000E+00  0.0000E+00