    2    2    1    2
  0.2044201E+02  0.3866840E-09  0.3866840E-09  0.3866840E-09  0.5000000E-15
  1.000000000000000E-004
  CAR 
 Silicon Diamond (band)                  
    8  300   12
 
  0.0000000E+00  0.0000000E+00  0.0000000E+00  0.3333333E-02
   1       -6.197117     -6.197073
   2        5.618520      5.618569
   3        5.618520      5.618569
   4        5.618520      5.618569
   5        8.174896      8.174988
   6        8.174896      8.174988
   7        8.174896      8.174988
   8        8.753645      8.753777
   9       13.327072     13.327097
  10       13.327073     13.327100
  11       13.496626     13.496235
  12       16.800546     16.800423
 
  0.1020408E-01  0.0000000E+00  0.1020408E-01  0.3333333E-02
   1       -6.195332     -6.195288
   2        5.605395      5.605444
   3        5.610781      5.610830
   4        5.610781      5.610830
   5        8.170416      8.170508
   6        8.184842      8.184934
   7        8.184842      8.184934
   8        8.766532      8.766664
   9       13.312112     13.312136
  10       13.329063     13.329088
  11       13.504667     13.504276
  12       16.808540     16.804015
 
  0.2040816E-01  0.0000000E+00  0.2040816E-01  0.3333333E-02
   1       -6.189954     -6.189909
   2        5.566688      5.566738
   3        5.587944      5.587993
   4        5.587944      5.587993
   5        8.157081      8.157171
   6        8.214317      8.214409
   7        8.214317      8.214409
   8        8.804485      8.804616
   9       13.268111     13.268134
  10       13.335028     13.335056
  11       13.528703     13.528315
  12       16.814163     16.813160
 
  0.3061224E-01  0.0000000E+00  0.3061224E-01  0.3333333E-02
   1       -6.181002     -6.180957
   2        5.504240      5.504292
   3        5.551031      5.551081
   4        5.551031      5.551081
   5        8.135144      8.135231
   6        8.262263      8.262354
   7        8.262264      8.262354
   8        8.865357      8.865487
   9       13.197599     13.197615
  10       13.344967     13.344993
  11       13.568435     13.568049
  12       16.831757     16.843646
 
  0.4081633E-01  0.0000000E+00  0.4081633E-01  0.3333333E-02
   1       -6.168464     -6.168419
   2        5.420707      5.420762
   3        5.501586      5.501637
   4        5.501586      5.501637
   5        8.105046      8.105130
   6        8.327157      8.327247
   7        8.327157      8.327247
   8        8.946131      8.946260
   9       13.104281     13.104291
  10       13.358893     13.358919
  11       13.623429     13.623046
  12       16.851106     16.852098
 
  0.5102041E-01  0.0000000E+00  0.5102041E-01  0.3333333E-02
   1       -6.152351     -6.152306
   2        5.319066      5.319123
   3        5.441386      5.441438
   4        5.441387      5.441438
   5        8.067353      8.067432
   6        8.407192      8.407282
   7        8.407192      8.407282
   8        9.043175      9.043302
   9       12.992574     12.992577
  10       13.376788     13.376814
  11       13.693098     13.692720
  12       16.878920     16.880809
 
  0.6122449E-01  0.0000000E+00  0.6122449E-01  0.3333333E-02
   1       -6.132662     -6.132617
   2        5.202263      5.202322
   3        5.372274      5.372326
   4        5.372274      5.372326
   5        8.022729      8.022803
   6        8.500517      8.500606
   7        8.500517      8.500606
   8        9.152616      9.152741
   9       12.867221     12.867217
  10       13.398659     13.398685
  11       13.776751     13.776379
  12       16.913371     16.913413
 
  0.7142857E-01  0.0000000E+00  0.7142857E-01  0.3333333E-02
   1       -6.109403     -6.109358
   2        5.072991      5.073052
   3        5.295995      5.296048
   4        5.295995      5.296048
   5        7.971910      7.971977
   6        8.605367      8.605455
   7        8.605367      8.605455
   8        9.270455      9.270577
   9       12.733096     12.733084
  10       13.424504     13.424530
  11       13.873625     13.873258
  12       16.954295     16.954333
 
  0.8163265E-01  0.0000000E+00  0.8163265E-01  0.3333333E-02
   1       -6.082579     -6.082534
   2        4.933570      4.933633
   3        5.214123      5.214177
   4        5.214123      5.214177
   5        7.915660      7.915721
   6        8.720146      8.720233
   7        8.720146      8.720233
   8        9.392528      9.392648
   9       12.595195     12.595176
  10       13.454323     13.454349
  11       13.982910     13.982549
  12       17.000788     17.000466
 
  0.9183673E-01  0.0000000E+00  0.9183673E-01  0.3333333E-02
   1       -6.052204     -6.052159
   2        4.785934      4.785999
   3        5.128024      5.128078
   4        5.128024      5.128078
   5        7.854757      7.854813
   6        8.843464      8.843550
   7        8.843464      8.843550
   8        9.514326      9.514444
   9       12.458802     12.458776
  10       13.488115     13.488141
  11       14.103786     14.103431
  12       17.053502     17.053618
 
  0.1020408E+00  0.0000000E+00  0.1020408E+00  0.3333333E-02
   1       -6.018282     -6.018237
   2        4.631665      4.631732
   3        5.038860      5.038914
   4        5.038860      5.038914
   5        7.789965      7.790014
   6        8.974136      8.974222
   7        8.974136      8.974222
   8        9.630712      9.630827
   9       12.329751     12.329719
  10       13.525882     13.525904
  11       14.235434     14.235085
  12       17.112453     17.112426
 
  0.1122449E+00  0.0000000E+00  0.1122449E+00  0.3333333E-02
   1       -5.980815     -5.980769
   2        4.472039      4.472108
   3        4.947601      4.947656
   4        4.947601      4.947656
   5        7.722016      7.722058
   6        9.111157      9.111242
   7        9.111157      9.111242
   8        9.735626      9.735737
   9       12.214721     12.214687
  10       13.567615     13.567638
  11       14.377060     14.376714
  12       17.177458     17.177727
 
  0.1224490E+00  0.0000000E+00  0.1224490E+00  0.3333333E-02
   1       -5.939820     -5.939774
   2        4.308081      4.308152
   3        4.855058      4.855114
   4        4.855059      4.855114
   5        7.651581      7.651617
   6        9.253689      9.253773
   7        9.253690      9.253774
   8        9.821968      9.822070
   9       12.121350     12.121315
  10       13.613356     13.613340
  11       14.527916     14.527544
  12       17.248838     17.248363
 
  0.1326531E+00  0.0000000E+00  0.1326531E+00  0.3333333E-02
   1       -5.895297     -5.895251
   2        4.140611      4.140684
   3        4.761904      4.761959
   4        4.761904      4.761959
   5        7.579335      7.579365
   6        9.401029      9.401113
   7        9.401030      9.401113
   8        9.882060      9.882153
   9       12.057783     12.057751
  10       13.662983     13.663009
  11       14.687176     14.686845
  12       17.325306     17.325412
 
  0.1428571E+00  0.0000000E+00  0.1428571E+00  0.3333333E-02
   1       -5.847261     -5.847215
   2        3.970285      3.970359
   3        4.668695      4.668750
   4        4.668695      4.668750
   5        7.505855      7.505878
   6        9.552581      9.552664
   7        9.552581      9.552664
   8        9.909052      9.909131
   9       12.031272     12.031246
  10       13.716617     13.716643
  11       14.854240     14.853917
  12       17.410173     17.407890
 
  0.1530612E+00  0.0000000E+00  0.1530612E+00  0.3333333E-02
   1       -5.795728     -5.795681
   2        3.797636      3.797712
   3        4.575896      4.575952
   4        4.575896      4.575952
   5        7.431668      7.431686
   6        9.707851      9.707933
   7        9.707851      9.707933
   8        9.899074      9.899137
   9       12.046031     12.046016
  10       13.774214     13.774240
  11       15.028414     15.028098
  12       17.495919     17.499655
 
  0.1632653E+00  0.0000000E+00  0.1632653E+00  0.3333333E-02
   1       -5.740700     -5.740653
   2        3.623100      3.623177
   3        4.483898      4.483955
   4        4.483898      4.483955
   5        7.357293      7.357305
   6        9.852760      9.852804
   7        9.866424      9.866505
   8        9.866424      9.866506
   9       12.101721     12.101718
  10       13.835771     13.835797
  11       15.209067     15.208753
  12       17.589523     17.589956
 
  0.1734694E+00  0.0000000E+00  0.1734694E+00  0.3333333E-02
   1       -5.682199     -5.682151
   2        3.447027      3.447106
   3        4.393027      4.393083
   4        4.393027      4.393083
   5        7.283162      7.283168
   6        9.774777      9.774804
   7       10.027940     10.028021
   8       10.027941     10.028022
   9       12.193909     12.193917
  10       13.901288     13.901314
  11       15.395587     15.395282
  12       17.687982     17.687993
 
  0.1836735E+00  0.0000000E+00  0.1836735E+00  0.3333333E-02
   1       -5.620251     -5.620203
   2        3.269704      3.269783
   3        4.303554      4.303611
   4        4.303554      4.303611
   5        7.209674      7.209674
   6        9.671807      9.671818
   7       10.192095     10.192175
   8       10.192095     10.192175
   9       12.316104     12.316123
  10       13.970762     13.970785
  11       15.587457     15.587081
  12       17.792326     17.791273
 
  0.1938776E+00  0.0000000E+00  0.1938776E+00  0.3333333E-02
   1       -5.554860     -5.554811
   2        3.091371      3.091452
   3        4.215716      4.215773
   4        4.215716      4.215773
   5        7.137190      7.137186
   6        9.550556      9.550553
   7       10.358624     10.358703
   8       10.358625     10.358704
   9       12.461750     12.461778
  10       14.044185     14.044210
  11       15.783867     15.783568
  12       17.899641     17.899181
 
  0.2040816E+00  0.0000000E+00  0.2040816E+00  0.3333333E-02
   1       -5.486036     -5.485987
   2        2.912232      2.912313
   3        4.129718      4.129774
   4        4.129718      4.129774
   5        7.066034      7.066025
   6        9.416708      9.416694
   7       10.527300     10.527378
   8       10.527300     10.527378
   9       12.625282     12.625317
  10       14.121560     14.121586
  11       15.984452     15.984157
  12       18.028165     18.010593
 
  0.2142857E+00  0.0000000E+00  0.2142857E+00  0.3333333E-02
   1       -5.413807     -5.413757
   2        2.732458      2.732540
   3        4.045727      4.045784
   4        4.045727      4.045784
   5        6.996511      6.996497
   6        9.274689      9.274664
   7       10.697932     10.698010
   8       10.697934     10.698010
   9       12.802333     12.802373
  10       14.202882     14.202908
  11       16.188523     16.188239
  12       18.125432     18.125620
 
  0.2244898E+00  0.0000000E+00  0.2244898E+00  0.3333333E-02
   1       -5.338190     -5.338139
   2        2.552175      2.552258
   3        3.963893      3.963950
   4        3.963893      3.963950
   5        6.928871      6.928852
   6        9.127806      9.127772
   7       10.870346     10.870423
   8       10.870346     10.870424
   9       12.989636     12.989681
  10       14.288148     14.288174
  11       16.395460     16.395177
  12       18.242687     18.242400
 
  0.2346939E+00  0.0000000E+00  0.2346939E+00  0.3333333E-02
   1       -5.259194     -5.259144
   2        2.371551      2.371634
   3        3.884351      3.884408
   4        3.884351      3.884408
   5        6.863373      6.863350
   6        8.978533      8.978492
   7       11.044399     11.044476
   8       11.044400     11.044479
   9       13.184765     13.184813
  10       14.377355     14.377381
  11       16.604597     16.604315
  12       18.360779     18.360894
 
  0.2448980E+00  0.0000000E+00  0.2448980E+00  0.3333333E-02
   1       -5.176858     -5.176807
   2        2.190692      2.190775
   3        3.807209      3.807266
   4        3.807209      3.807266
   5        6.800222      6.800196
   6        8.828661      8.828613
   7       11.219961     11.220037
   8       11.219962     11.220039
   9       13.385869     13.385920
  10       14.470498     14.470524
  11       16.815180     16.814905
  12       18.478104     18.478092
 
  0.2551020E+00  0.0000000E+00  0.2551020E+00  0.3333333E-02
   1       -5.091198     -5.091146
   2        2.009706      2.009790
   3        3.732568      3.732624
   4        3.732568      3.732624
   5        6.739618      6.739587
   6        8.679564      8.679511
   7       11.396923     11.396997
   8       11.396923     11.396999
   9       13.591550     13.591603
  10       14.567573     14.567599
  11       17.026442     17.026154
  12       18.594128     18.593412
 
  0.2653061E+00  0.0000000E+00  0.2653061E+00  0.3333333E-02
   1       -5.002248     -5.002195
   2        1.828695      1.828779
   3        3.660513      3.660570
   4        3.660513      3.660570
   5        6.681739      6.681704
   6        8.532271      8.532213
   7       11.575181     11.575256
   8       11.575186     11.575258
   9       13.800705     13.800760
  10       14.668577     14.668602
  11       17.237423     17.237152
  12       18.705179     18.703145
 
  0.2755102E+00  0.0000000E+00  0.2755102E+00  0.3333333E-02
   1       -4.910030     -4.909977
   2        1.647756      1.647840
   3        3.591123      3.591180
   4        3.591123      3.591180
   5        6.626749      6.626711
   6        8.387569      8.387506
   7       11.754658     11.754731
   8       11.754663     11.754732
   9       14.012463     14.012518
  10       14.773504     14.773530
  11       17.447146     17.447130
  12       18.804730     18.804539
 
  0.2857143E+00  0.0000000E+00  0.2857143E+00  0.3333333E-02
   1       -4.814568     -4.814514
   2        1.466971      1.467056
   3        3.524465      3.524521
   4        3.524465      3.524521
   5        6.574793      6.574752
   6        8.246066      8.245999
   7       11.935268     11.935341
   8       11.935270     11.935342
   9       14.226104     14.226161
  10       14.882350     14.882376
  11       17.654433     17.654145
  12       18.893024     18.893159
 
  0.2959184E+00  0.0000000E+00  0.2959184E+00  0.3333333E-02
   1       -4.715888     -4.715834
   2        1.286457      1.286542
   3        3.460601      3.460658
   4        3.460601      3.460658
   5        6.526022      6.525977
   6        8.108237      8.108168
   7       12.116975     12.117046
   8       12.116978     12.117046
   9       14.441030     14.441087
  10       14.995110     14.995136
  11       17.857947     17.857567
  12       18.962793     18.962723
 
  0.3061224E+00  0.0000000E+00  0.3061224E+00  0.3333333E-02
   1       -4.614022     -4.613967
   2        1.106293      1.106378
   3        3.399586      3.399642
   4        3.399586      3.399643
   5        6.480556      6.480509
   6        7.974455      7.974383
   7       12.299709     12.299781
   8       12.299709     12.299787
   9       14.656721     14.656777
  10       15.111779     15.111805
  11       18.056016     18.055626
  12       19.008397     19.008759
 
  0.3163265E+00  0.0000000E+00  0.3163265E+00  0.3333333E-02
   1       -4.509002     -4.508946
   2        0.926560      0.926645
   3        3.341468      3.341524
   4        3.341468      3.341524
   5        6.438515      6.438465
   6        7.845012      7.844936
   7       12.483421     12.483492
   8       12.483421     12.483492
   9       14.872727     14.872782
  10       15.232351     15.232377
  11       18.249302     18.246881
  12       19.024293     19.024293
 
  0.3265306E+00  0.0000000E+00  0.3265306E+00  0.3333333E-02
   1       -4.400862     -4.400805
   2        0.747355      0.747440
   3        3.286289      3.286346
   4        3.286289      3.286346
   5        6.400010      6.399957
   6        7.720135      7.720057
   7       12.668064     12.668134
   8       12.668064     12.668135
   9       15.088646     15.088701
  10       15.356821     15.356846
  11       18.428194     18.429427
  12       19.006493     19.006373
 
  0.3367347E+00  0.0000000E+00  0.3367347E+00  0.3333333E-02
   1       -4.289638     -4.289580
   2        0.568774      0.568858
   3        3.234090      3.234146
   4        3.234090      3.234146
   5        6.365143      6.365087
   6        7.600006      7.599926
   7       12.853589     12.853659
   8       12.853590     12.853660
   9       15.304115     15.304174
  10       15.485181     15.485208
  11       18.599925     18.598557
  12       18.953754     18.953903
 
  0.3469388E+00  0.0000000E+00  0.3469388E+00  0.3333333E-02
   1       -4.175371     -4.175312
   2        0.390908      0.390992
   3        3.184905      3.184962
   4        3.184905      3.184962
   5        6.334012      6.333954
   6        7.484762      7.484681
   7       13.039946     13.040016
   8       13.039947     13.040016
   9       15.518797     15.518848
  10       15.617425     15.617453
  11       18.768110     18.770248
  12       18.868457     18.868528
 
  0.3571429E+00  0.0000000E+00  0.3571429E+00  0.3333333E-02
   1       -4.058109     -4.058050
   2        0.213852      0.213936
   3        3.138766      3.138822
   4        3.138766      3.138822
   5        6.306712      6.306651
   6        7.374509      7.374426
   7       13.227078     13.227148
   8       13.227079     13.227153
   9       15.732378     15.732427
  10       15.753547     15.753575
  11       18.754767     18.754832
  12       18.816744     18.826120
 
  0.3673469E+00  0.0000000E+00  0.3673469E+00  0.3333333E-02
   1       -3.937883     -3.937823
   2        0.037699      0.037782
   3        3.095701      3.095757
   4        3.095701      3.095757
   5        6.283326      6.283263
   6        7.269325      7.269241
   7       13.414914     13.414982
   8       13.414918     13.414982
   9       15.893540     15.893565
  10       15.944559     15.944606
  11       18.618026     18.618018
  12       18.622595     18.623072
 
  0.3775510E+00  0.0000000E+00  0.3775510E+00  0.3333333E-02
   1       -3.814737     -3.814676
   2       -0.137458     -0.137376
   3        3.055735      3.055791
   4        3.055735      3.055791
   5        6.263939      6.263874
   6        7.169265      7.169180
   7       13.603356     13.603425
   8       13.603356     13.603425
   9       16.037397     16.037420
  10       16.155048     16.155094
  11       18.463312     18.463328
  12       18.494692     18.477478
 
  0.3877551E+00  0.0000000E+00  0.3877551E+00  0.3333333E-02
   1       -3.688715     -3.688653
   2       -0.311531     -0.311449
   3        3.018889      3.018946
   4        3.018889      3.018946
   5        6.248630      6.248562
   6        7.074365      7.074279
   7       13.792277     13.792345
   8       13.792283     13.792346
   9       16.185104     16.185129
  10       16.363553     16.363597
  11       18.295282     18.295315
  12       18.298179     18.315335
 
  0.3979592E+00  0.0000000E+00  0.3979592E+00  0.3333333E-02
   1       -3.559865     -3.559803
   2       -0.484416     -0.484335
   3        2.985187      2.985243
   4        2.985187      2.985243
   5        6.237475      6.237405
   6        6.984645      6.984559
   7       13.981515     13.981590
   8       13.981516     13.981605
   9       16.336659     16.336684
  10       16.569809     16.569835
  11       18.117675     18.117701
  12       18.126299     18.123041
 
  0.4081633E+00  0.0000000E+00  0.4081633E+00  0.3333333E-02
   1       -3.428238     -3.428174
   2       -0.656032     -0.655952
   3        2.954643      2.954700
   4        2.954643      2.954700
   5        6.230547      6.230476
   6        6.900113      6.900026
   7       14.170820     14.170890
   8       14.170840     14.170892
   9       16.492058     16.492076
  10       16.773499     16.773639
  11       17.933514     17.933524
  12       17.941333     17.935225
 
  0.4183673E+00  0.0000000E+00  0.4183673E+00  0.3333333E-02
   1       -3.293887     -3.293823
   2       -0.826285     -0.826205
   3        2.927271      2.927327
   4        2.927271      2.927327
   5        6.227916      6.227843
   6        6.820763      6.820677
   7       14.359809     14.359883
   8       14.359810     14.359886
   9       16.651263     16.651365
  10       16.974287     16.974856
  11       17.745249     17.745335
  12       17.745471     17.754648
 
  0.4285714E+00  0.0000000E+00  0.4285714E+00  0.3333333E-02
   1       -3.156865     -3.156799
   2       -0.995066     -0.994988
   3        2.903092      2.903148
   4        2.903092      2.903148
   5        6.229653      6.229579
   6        6.746582      6.746495
   7       14.547937     14.548010
   8       14.547954     14.548043
   9       16.814407     16.814624
  10       17.172732     17.171885
  11       17.555427     17.555197
  12       17.556528     17.557012
 
  0.4387755E+00  0.0000000E+00  0.4387755E+00  0.3333333E-02
   1       -3.017235     -3.017169
   2       -1.162303     -1.162225
   3        2.882114      2.882170
   4        2.882114      2.882170
   5        6.235825      6.235749
   6        6.677552      6.677465
   7       14.734289     14.734370
   8       14.734290     14.734371
   9       16.981131     16.981185
  10       17.365108     17.365144
  11       17.365240     17.365675
  12       17.365763     17.366208
 
  0.4489796E+00  0.0000000E+00  0.4489796E+00  0.3333333E-02
   1       -2.875047     -2.874980
   2       -1.327885     -1.327808
   3        2.864350      2.864406
   4        2.864350      2.864406
   5        6.246496      6.246419
   6        6.613635      6.613549
   7       14.917394     14.917471
   8       14.917411     14.917476
   9       17.151763     17.151792
  10       17.177739     17.177736
  11       17.177748     17.177745
  12       17.555706     17.555734
 
  0.4591837E+00  0.0000000E+00  0.4591837E+00  0.3333333E-02
   1       -2.730383     -2.730315
   2       -1.491744     -1.491669
   3        2.849803      2.849860
   4        2.849803      2.849860
   5        6.261724      6.261645
   6        6.554816      6.554730
   7       15.094607     15.094694
   8       15.094636     15.094707
   9       16.996254     16.996265
  10       16.996785     16.998198
  11       17.328463     17.326820
  12       17.741798     17.750348
 
  0.4693878E+00  0.0000000E+00  0.4693878E+00  0.3333333E-02
   1       -2.583294     -2.583224
   2       -1.653775     -1.653700
   3        2.838482      2.838538
   4        2.838482      2.838538
   5        6.281580      6.281500
   6        6.501027      6.500941
   7       15.261058     15.261160
   8       15.261080     15.261175
   9       16.825981     16.825933
  10       16.826382     16.825943
  11       17.505657     17.504563
  12       17.925353     17.921689
 
  0.4795918E+00  0.0000000E+00  0.4795918E+00  0.3333333E-02
   1       -2.433845     -2.433775
   2       -1.813904     -1.813831
   3        2.830392      2.830448
   4        2.830392      2.830448
   5        6.306119      6.306038
   6        6.452238      6.452153
   7       15.407172     15.407290
   8       15.407177     15.407310
   9       16.676897     16.676857
  10       16.676902     16.676864
  11       17.686331     17.686497
  12       18.096019     18.097942
 
  0.4897959E+00  0.0000000E+00  0.4897959E+00  0.3333333E-02
   1       -2.282108     -2.282037
   2       -1.972060     -1.971987
   3        2.825536      2.825593
   4        2.825537      2.825593
   5        6.335399      6.335316
   6        6.408405      6.408321
   7       15.514551     15.514684
   8       15.514552     15.514686
   9       16.567664     16.567604
  10       16.567681     16.567638
  11       17.874743     17.872592
  12       18.257457     18.255648
 
  0.5000000E+00  0.0000000E+00  0.5000000E+00  0.3333333E-02
   1       -2.128155     -2.128083
   2       -2.128155     -2.128083
   3        2.823918      2.823974
   4        2.823918      2.823974
   5        6.369476      6.369392
   6        6.369476      6.369392
   7       15.555736     15.555869
   8       15.555930     15.555908
   9       16.525847     16.525785
  10       16.525876     16.525787
  11       18.061544     18.061460
  12       18.063632     18.066201
 
  0.5000000E+00  0.0000000E+00  0.5000000E+00  0.3333333E-02
   1       -2.128155     -2.128083
   2       -2.128155     -2.128083
   3        2.823918      2.823974
   4        2.823918      2.823974
   5        6.369476      6.369392
   6        6.369476      6.369392
   7       15.555727     15.555870
   8       15.555728     15.555878
   9       16.525855     16.525784
  10       16.525879     16.526153
  11       18.062263     18.065991
  12       18.138286     18.148407
 
  0.5025510E+00  0.5102041E-02  0.5025510E+00  0.3333333E-02
   1       -2.128253     -2.128181
   2       -2.127911     -2.127839
   3        2.822388      2.822444
   4        2.824097      2.824153
   5        6.369682      6.369599
   6        6.371755      6.371672
   7       15.553306     15.553405
   8       15.554438     15.554494
   9       16.521928     16.521854
  10       16.522929     16.522867
  11       18.064138     18.064655
  12       18.070790     18.065060
 
  0.5051020E+00  0.1020408E-01  0.5051020E+00  0.3333333E-02
   1       -2.128547     -2.128475
   2       -2.127182     -2.127110
   3        2.817811      2.817867
   4        2.824635      2.824692
   5        6.370302      6.370219
   6        6.378580      6.378497
   7       15.545957     15.546053
   8       15.550268     15.550378
   9       16.510240     16.510185
  10       16.514259     16.514207
  11       18.072685     18.072945
  12       18.101265     18.097609
 
  0.5076531E+00  0.1530612E-01  0.5076531E+00  0.3333333E-02
   1       -2.129038     -2.128966
   2       -2.125965     -2.125893
   3        2.810228      2.810284
   4        2.825532      2.825588
   5        6.371335      6.371251
   6        6.389912      6.389829
   7       15.533774     15.533898
   8       15.543409     15.543543
   9       16.491075     16.491013
  10       16.499985     16.499921
  11       18.085825     18.086268
  12       18.094133     18.094549
 
  0.5102041E+00  0.2040816E-01  0.5102041E+00  0.3333333E-02
   1       -2.129729     -2.129657
   2       -2.124262     -2.124190
   3        2.799706      2.799760
   4        2.826787      2.826843
   5        6.372780      6.372697
   6        6.405685      6.405603
   7       15.516902     15.517067
   8       15.533888     15.534041
   9       16.464955     16.464886
  10       16.480450     16.480383
  11       18.104019     18.104388
  12       18.110546     18.119380
 
  0.5127551E+00  0.2551020E-01  0.5127551E+00  0.3333333E-02
   1       -2.130624     -2.130551
   2       -2.122073     -2.122001
   3        2.786331      2.786385
   4        2.828401      2.828457
   5        6.374638      6.374555
   6        6.425815      6.425733
   7       15.495615     15.495755
   8       15.521755     15.521894
   9       16.432417     16.432354
  10       16.456012     16.455954
  11       18.127711     18.125489
  12       18.138576     18.130073
 
  0.5153061E+00  0.3061224E-01  0.5153061E+00  0.3333333E-02
   1       -2.131725     -2.131653
   2       -2.119397     -2.119325
   3        2.770216      2.770268
   4        2.830373      2.830429
   5        6.376909      6.376826
   6        6.450192      6.450112
   7       15.470105     15.470268
   8       15.507070     15.507207
   9       16.394143     16.394054
  10       16.427177     16.427047
  11       18.156150     18.153923
  12       18.205948     18.167822
 
  0.5178571E+00  0.3571429E-01  0.5178571E+00  0.3333333E-02
   1       -2.133039     -2.132966
   2       -2.116235     -2.116163
   3        2.751488      2.751540
   4        2.832703      2.832760
   5        6.379592      6.379509
   6        6.478695      6.478615
   7       15.440631     15.440768
   8       15.489911     15.490047
   9       16.350725     16.350667
  10       16.394156     16.394103
  11       18.185763     18.185928
  12       18.190969     18.193176
 
  0.5204082E+00  0.4081633E-01  0.5204082E+00  0.3333333E-02
   1       -2.134569     -2.134496
   2       -2.112586     -2.112514
   3        2.730293      2.730344
   4        2.835391      2.835448
   5        6.382687      6.382604
   6        6.511183      6.511105
   7       15.407480     15.407676
   8       15.470374     15.470542
   9       16.302877     16.302858
  10       16.357630     16.357576
  11       18.221384     18.220513
  12       18.237803     18.228585
 
  0.5229592E+00  0.4591837E-01  0.5229592E+00  0.3333333E-02
   1       -2.136323     -2.136250
   2       -2.108451     -2.108379
   3        2.706785      2.706834
   4        2.838437      2.838493
   5        6.386193      6.386110
   6        6.547510      6.547433
   7       15.370949     15.371087
   8       15.448547     15.448684
   9       16.251172     16.251109
  10       16.317948     16.317867
  11       18.258991     18.263496
  12       18.266512     18.278664
 
  0.5255102E+00  0.5102041E-01  0.5255102E+00  0.3333333E-02
   1       -2.138307     -2.138234
   2       -2.103830     -2.103758
   3        2.681128      2.681176
   4        2.841839      2.841895
   5        6.390110      6.390028
   6        6.587517      6.587441
   7       15.331249     15.331387
   8       15.424532     15.424721
   9       16.196147     16.196114
  10       16.275447     16.275392
  11       18.301550     18.302678
  12       18.308318     18.307801
 
  0.5280612E+00  0.5612245E-01  0.5280612E+00  0.3333333E-02
   1       -2.140531     -2.140458
   2       -2.098722     -2.098650
   3        2.653489      2.653535
   4        2.845598      2.845654
   5        6.394438      6.394356
   6        6.631043      6.630969
   7       15.288743     15.288874
   8       15.398444     15.398584