Silicon Diamond (band)                  
   5.43000000000000     
     0.000000    0.503549    0.503549
     0.503549    0.000000    0.503549
     0.503549    0.503549    0.000000
   Si
     2
Direct
  0.000000  0.000000  0.000000
  0.250000  0.250000  0.250000
 
   28   28   28
 0.12855E-01 0.19122E-01 0.48345E-01 0.13084     0.28144     0.44857     0.57013     0.63032     0.63857     0.60415    
 0.53073     0.43012     0.33065     0.26135     0.23717     0.26135     0.33065     0.43012     0.53073     0.60415    
 0.63857     0.63032     0.57013     0.44857     0.28144     0.13084     0.48345E-01 0.19122E-01 0.19122E-01 0.44779E-01
 0.13417     0.31410     0.51093     0.64650     0.71537     0.73481     0.71643     0.66124     0.56868     0.45527    
 0.35533     0.29905     0.29905     0.35533     0.45527     0.56868     0.66124     0.71643     0.73481     0.71537    
 0.64650     0.51093     0.31410     0.13417     0.44779E-01 0.19122E-01 0.48345E-01 0.13417     0.33021     0.55223    
 0.69876     0.77201     0.79825     0.79241     0.75679     0.68506     0.57768     0.45885     0.36882     0.33618    
 0.36882     0.45885     0.57768     0.68506     0.75679     0.79241     0.79825     0.77201     0.69876     0.55223    
 0.33021     0.13417     0.48345E-01 0.30039E-01 0.13084     0.31410     0.55223     0.71711     0.79959     0.83287    
 0.83673     0.81677     0.76733     0.67944     0.55925     0.44209     0.37234     0.37234     0.44209     0.55925    
 0.67944     0.76733     0.81677     0.83673     0.83287     0.79959     0.71711     0.55223     0.31410     0.13084    
 0.62820E-01 0.62820E-01 0.28144     0.51093     0.69876     0.79959     0.84372     0.85667     0.84841     0.81677    
 0.75122     0.64399     0.51288     0.40715     0.36806     0.40715     0.51288     0.64399     0.75122     0.81677    
 0.84841     0.85667     0.84372     0.79959     0.69876     0.51093     0.28144     0.13750     0.98199E-01 0.13750    
 0.44857     0.64650     0.77201     0.83287     0.85667     0.85818     0.83939     0.79241     0.70405     0.57361    
 0.43983     0.35957     0.35957     0.43983     0.57361     0.70405     0.79241     0.83939     0.85818     0.85667    
 0.83287     0.77201     0.64650     0.44857     0.25902     0.16493     0.16493     0.25902     0.57013     0.71537    
 0.79825     0.83673     0.84841     0.83939     0.80567     0.73481     0.61536     0.46742     0.35105     0.30948    
 0.35105     0.46742     0.61536     0.73481     0.80567     0.83939     0.84841     0.83673     0.79825     0.71537    
 0.57013     0.39020     0.25745     0.21346     0.25745     0.39020     0.63032     0.73481     0.79241     0.81677    
 0.81677     0.79241     0.73481     0.63032     0.48399     0.34548     0.26877     0.26877     0.34548     0.48399    
 0.63032     0.73481     0.79241     0.81677     0.81677     0.79241     0.73481     0.63032     0.48399     0.34548    
 0.26877     0.26877     0.34548     0.48399     0.63857     0.71643     0.75679     0.76733     0.75122     0.70405    
 0.61536     0.48399     0.34367     0.24638     0.21389     0.24638     0.34367     0.48399     0.61536     0.70405    
 0.75122     0.76733     0.75679     0.71643     0.63857     0.52326     0.39812     0.30777     0.27642     0.30777    
 0.39812     0.52326     0.60415     0.66124     0.68506     0.67944     0.64399     0.57361     0.46742     0.34548    
 0.24638     0.19522     0.19522     0.24638     0.34548     0.46742     0.57361     0.64399     0.67944     0.68506    
 0.66124     0.60415     0.51350     0.40624     0.31588     0.26737     0.26737     0.31588     0.40624     0.51350    
 0.53073     0.56868     0.57768     0.55925     0.51288     0.43983     0.35105     0.26877     0.21389     0.19522    
 0.21389     0.26877     0.35105     0.43983     0.51288     0.55925     0.57768     0.56868     0.53073     0.46322    
 0.37610     0.29388     0.23951     0.22121     0.23951     0.29388     0.37610     0.46322     0.43012     0.45527    
 0.45885     0.44209     0.40715     0.35957     0.30948     0.26877     0.24638     0.24638     0.26877     0.30948    
 0.35957     0.40715     0.44209     0.45885     0.45527     0.43012     0.38282     0.31781     0.25022     0.19882    
 0.17279     0.17279     0.19882     0.25022     0.31781     0.38282     0.33065     0.35533     0.36882     0.37234    
 0.36806     0.35957     0.35105     0.34548     0.34367     0.34548     0.35105     0.35957     0.36806     0.37234    
 0.36882     0.35533     0.33065     0.29410     0.24689     0.19595     0.15329     0.12716     0.11869     0.12716    
 0.15329     0.19595     0.24689     0.29410     0.26135     0.29905     0.33618     0.37234     0.40715     0.43983    
 0.46742     0.48399     0.48399     0.46742     0.43983     0.40715     0.37234     0.33618     0.29905     0.26135    
 0.22299     0.18359     0.14462     0.11119     0.88509E-01 0.77738E-01 0.77738E-01 0.88509E-01 0.11119     0.14462    
 0.18359     0.22299     0.23717     0.29905     0.36882     0.44209     0.51288     0.57361     0.61536     0.63032    
 0.61536     0.57361     0.51288     0.44209     0.36882     0.29905     0.23717     0.18517     0.14243     0.10729    
 0.79438E-01 0.60053E-01 0.49324E-01 0.46005E-01 0.49324E-01 0.60053E-01 0.79438E-01 0.10729     0.14243     0.18517    
 0.26135     0.35533     0.45885     0.55925     0.64399     0.70405     0.73481     0.73481     0.70405     0.64399    
 0.55925     0.45885     0.35533     0.26135     0.18517     0.12853     0.88447E-01 0.60797E-01 0.42639E-01 0.32077E-01
 0.27398E-01 0.27398E-01 0.32077E-01 0.42639E-01 0.60797E-01 0.88447E-01 0.12853     0.18517     0.33065     0.45527    
 0.57768     0.67944     0.75122     0.79241     0.80567     0.79241     0.75122     0.67944     0.57768     0.45527    
 0.33065     0.22299     0.14243     0.88447E-01 0.54795E-01 0.34746E-01 0.23449E-01 0.17859E-01 0.16198E-01 0.17859E-01
 0.23449E-01 0.34746E-01 0.54795E-01 0.88447E-01 0.14243     0.22299     0.43012     0.56868     0.68506     0.76733    
 0.81677     0.83939     0.83939     0.81677     0.76733     0.68506     0.56868     0.43012     0.29410     0.18359    
 0.10729     0.60797E-01 0.34746E-01 0.20909E-01 0.14025E-01 0.11218E-01 0.11218E-01 0.14025E-01 0.20909E-01 0.34746E-01
 0.60797E-01 0.10729     0.18359     0.29410     0.53073     0.66124     0.75679     0.81677     0.84841     0.85818    
 0.84841     0.81677     0.75679     0.66124     0.53073     0.38282     0.24689     0.14462     0.79438E-01 0.42639E-01
 0.23449E-01 0.14025E-01 0.98375E-02 0.86623E-02 0.98375E-02 0.14025E-01 0.23449E-01 0.42639E-01 0.79438E-01 0.14462    
 0.24689     0.38282     0.60415     0.71643     0.79241     0.83673     0.85667     0.85667     0.83673     0.79241    
 0.71643     0.60415     0.46322     0.31781     0.19595     0.11119     0.60053E-01 0.32077E-01 0.17859E-01 0.11218E-01
 0.86623E-02 0.86623E-02 0.11218E-01 0.17859E-01 0.32077E-01 0.60053E-01 0.11119     0.19595     0.31781     0.46322    
 0.63857     0.73481     0.79825     0.83287     0.84372     0.83287     0.79825     0.73481     0.63857     0.51350    
 0.37610     0.25022     0.15329     0.88509E-01 0.49324E-01 0.27398E-01 0.16198E-01 0.11218E-01 0.98375E-02 0.11218E-01
 0.16198E-01 0.27398E-01 0.49324E-01 0.88509E-01 0.15329     0.25022     0.37610     0.51350     0.63032     0.71537    
 0.77201     0.79959     0.79959     0.77201     0.71537     0.63032     0.52326     0.40624     0.29388     0.19882    
 0.12716     0.77738E-01 0.46005E-01 0.27398E-01 0.17859E-01 0.14025E-01 0.14025E-01 0.17859E-01 0.27398E-01 0.46005E-01
 0.77738E-01 0.12716     0.19882     0.29388     0.40624     0.52326     0.57013     0.64650     0.69876     0.71711    
 0.69876     0.64650     0.57013     0.48399     0.39812     0.31588     0.23951     0.17279     0.11869     0.77738E-01
 0.49324E-01 0.32077E-01 0.23449E-01 0.20909E-01 0.23449E-01 0.32077E-01 0.49324E-01 0.77738E-01 0.11869     0.17279    
 0.23951     0.31588     0.39812     0.48399     0.44857     0.51093     0.55223     0.55223     0.51093     0.44857    
 0.39020     0.34548     0.30777     0.26737     0.22121     0.17279     0.12716     0.88509E-01 0.60053E-01 0.42639E-01
 0.34746E-01 0.34746E-01 0.42639E-01 0.60053E-01 0.88509E-01 0.12716     0.17279     0.22121     0.26737     0.30777    
 0.34548     0.39020     0.28144     0.31410     0.33021     0.31410     0.28144     0.25902     0.25745     0.26877    
 0.27642     0.26737     0.23951     0.19882     0.15329     0.11119     0.79438E-01 0.60797E-01 0.54795E-01 0.60797E-01
 0.79438E-01 0.11119     0.15329     0.19882     0.23951     0.26737     0.27642     0.26877     0.25745     0.25902    
 0.13084     0.13417     0.13417     0.13084     0.13750     0.16493     0.21346     0.26877     0.30777     0.31588    
 0.29388     0.25022     0.19595     0.14462     0.10729     0.88447E-01 0.88447E-01 0.10729     0.14462     0.19595    
 0.25022     0.29388     0.31588     0.30777     0.26877     0.21346     0.16493     0.13750     0.48345E-01 0.44779E-01
 0.48345E-01 0.62820E-01 0.98199E-01 0.16493     0.25745     0.34548     0.39812     0.40624     0.37610     0.31781    
 0.24689     0.18359     0.14243     0.12853     0.14243     0.18359     0.24689     0.31781     0.37610     0.40624    
 0.39812     0.34548     0.25745     0.16493     0.98199E-01 0.62820E-01 0.19122E-01 0.19122E-01 0.30039E-01 0.62820E-01
 0.13750     0.25902     0.39020     0.48399     0.52326     0.51350     0.46322     0.38282     0.29410     0.22299    
 0.18517     0.18517     0.22299     0.29410     0.38282     0.46322     0.51350     0.52326     0.48399     0.39020    
 0.25902     0.13750     0.62820E-01 0.30039E-01 0.19122E-01 0.44779E-01 0.13417     0.31410     0.51093     0.64650    
 0.71537     0.73481     0.71643     0.66124     0.56868     0.45527     0.35533     0.29905     0.29905     0.35533    
 0.45527     0.56868     0.66124     0.71643     0.73481     0.71537     0.64650     0.51093     0.31410     0.13417    
 0.44779E-01 0.19122E-01 0.44779E-01 0.13553     0.34688     0.57636     0.71937     0.78838     0.81233     0.80567    
 0.77012     0.69876     0.59110     0.47069     0.37859     0.34504     0.37859     0.47069     0.59110     0.69876    
 0.77012     0.80567     0.81233     0.78838     0.71937     0.57636     0.34688     0.13553     0.44779E-01 0.26449E-01
 0.13417     0.34688     0.60307     0.75928     0.83086     0.85806     0.85946     0.83939     0.79155     0.70553    
 0.58481     0.46381     0.39041     0.39041     0.46381     0.58481     0.70553     0.79155     0.83939     0.85946    
 0.85806     0.83086     0.75928     0.60307     0.34688     0.13417     0.57872E-01 0.57872E-01 0.31410     0.57636    
 0.75928     0.84452     0.87863     0.88698     0.87784     0.84841     0.78722     0.68294     0.54846     0.43515    
 0.39238     0.43515     0.54846     0.68294     0.78722     0.84841     0.87784     0.88698     0.87863     0.84452    
 0.75928     0.57636     0.31410     0.13930     0.93371E-01 0.13930     0.51093     0.71937     0.83086     0.87863    
 0.89532     0.89459     0.87784     0.83673     0.75526     0.62485     0.48007     0.38900     0.38900     0.48007    
 0.62485     0.75526     0.83673     0.87784     0.89459     0.89532     0.87863     0.83086     0.71937     0.51093    
 0.28190     0.16539     0.16539     0.28190     0.64650     0.78838     0.85806     0.88698     0.89459     0.88681    
 0.85946     0.79825     0.68349     0.52333     0.38621     0.33569     0.38621     0.52333     0.68349     0.79825    
 0.85946     0.88681     0.89459     0.88698     0.85806     0.78838     0.64650     0.44019     0.27382     0.21833    
 0.27382     0.44019     0.71537     0.81233     0.85946     0.87784     0.87784     0.85946     0.81233     0.71537    
 0.55707     0.38734     0.28848     0.28848     0.38734     0.55707     0.71537     0.81233     0.85946     0.87784    
 0.87784     0.85946     0.81233     0.71537     0.55707     0.38734     0.28848     0.28848     0.38734     0.55707    
 0.73481     0.80567     0.83939     0.84841     0.83673     0.79825     0.71537     0.57013     0.39020     0.25745    
 0.21346     0.25745     0.39020     0.57013     0.71537     0.79825     0.83673     0.84841     0.83939     0.80567    
 0.73481     0.61536     0.46742     0.35105     0.30948     0.35105     0.46742     0.61536     0.71643     0.77012    
 0.79155     0.78722     0.75526     0.68349     0.55707     0.39020     0.24685     0.17516     0.17516     0.24685    
 0.39020     0.55707     0.68349     0.75526     0.78722     0.79155     0.77012     0.71643     0.62284     0.49871    
 0.38338     0.31801     0.31801     0.38338     0.49871     0.62284     0.66124     0.69876     0.70553     0.68294    
 0.62485     0.52333     0.38734     0.25745     0.17516     0.14899     0.17516     0.25745     0.38734     0.52333    
 0.62485     0.68294     0.70553     0.69876     0.66124     0.58833     0.48531     0.37916     0.30435     0.27842    
 0.30435     0.37916     0.48531     0.58833     0.56868     0.59110     0.58481     0.54846     0.48007     0.38621    
 0.28848     0.21346     0.17516     0.17516     0.21346     0.28848     0.38621     0.48007     0.54846     0.58481    
 0.59110     0.56868     0.51581     0.43499     0.34392     0.27024     0.23147     0.23147     0.27024     0.34392    
 0.43499     0.51581     0.45527     0.47069     0.46381     0.43515     0.38900     0.33569     0.28848     0.25745    
 0.24685     0.25745     0.28848     0.33569     0.38900     0.43515     0.46381     0.47069     0.45527     0.41732    
 0.35797     0.28673     0.22277     0.18176     0.16815     0.18176     0.22277     0.28673     0.35797     0.41732    
 0.35533     0.37859     0.39041     0.39238     0.38900     0.38621     0.38734     0.39020     0.39020     0.38734    
 0.38621     0.38900     0.39238     0.39041     0.37859     0.35533     0.32053     0.27462     0.22131     0.17086    
 0.13453     0.11665     0.11665     0.13453     0.17086     0.22131     0.27462     0.32053     0.29905     0.34504    
 0.39041     0.43515     0.48007     0.52333     0.55707     0.57013     0.55707     0.52333     0.48007     0.43515    
 0.39041     0.34504     0.29905     0.25339     0.20848     0.16464     0.12495     0.94962E-01 0.77620E-01 0.72148E-01
 0.77620E-01 0.94962E-01 0.12495     0.16464     0.20848     0.25339     0.29905     0.37859     0.46381     0.54846    
 0.62485     0.68349     0.71537     0.71537     0.68349     0.62485     0.54846     0.46381     0.37859     0.29905    
 0.23002     0.17349     0.12834     0.92861E-01 0.67000E-01 0.51064E-01 0.43852E-01 0.43852E-01 0.51064E-01 0.67000E-01
 0.92861E-01 0.12834     0.17349     0.23002     0.35533     0.47069     0.58481     0.68294     0.75526     0.79825    
 0.81233     0.79825     0.75526     0.68294     0.58481     0.47069     0.35533     0.25339     0.17349     0.11615    
 0.77013E-01 0.51294E-01 0.35705E-01 0.27727E-01 0.25337E-01 0.27727E-01 0.35705E-01 0.51294E-01 0.77013E-01 0.11615    
 0.17349     0.25339     0.45527     0.59110     0.70553     0.78722     0.83673     0.85946     0.85946     0.83673    
 0.78722     0.70553     0.59110     0.45527     0.32053     0.20848     0.12834     0.77013E-01 0.46354E-01 0.29001E-01
 0.19986E-01 0.16241E-01 0.16241E-01 0.19986E-01 0.29001E-01 0.46354E-01 0.77013E-01 0.12834     0.20848     0.32053    
 0.56868     0.69876     0.79155     0.84841     0.87784     0.88681     0.87784     0.84841     0.79155     0.69876    
 0.56868     0.41732     0.27462     0.16464     0.92861E-01 0.51294E-01 0.29001E-01 0.17755E-01 0.12660E-01 0.11217E-01
 0.12660E-01 0.17755E-01 0.29001E-01 0.51294E-01 0.92861E-01 0.16464     0.27462     0.41732     0.66124     0.77012    
 0.83939     0.87784     0.89459     0.89459     0.87784     0.83939     0.77012     0.66124     0.51581     0.35797    
 0.22131     0.12495     0.67000E-01 0.35705E-01 0.19986E-01 0.12660E-01 0.98299E-02 0.98299E-02 0.12660E-01 0.19986E-01
 0.35705E-01 0.67000E-01 0.12495     0.22131     0.35797     0.51581     0.71643     0.80567     0.85946     0.88698    
 0.89532     0.88698     0.85946     0.80567     0.71643     0.58833     0.43499     0.28673     0.17086     0.94962E-01
 0.51064E-01 0.27727E-01 0.16241E-01 0.11217E-01 0.98299E-02 0.11217E-01 0.16241E-01 0.27727E-01 0.51064E-01 0.94962E-01
 0.17086     0.28673     0.43499     0.58833     0.73481     0.81233     0.85806     0.87863     0.87863     0.85806    
 0.81233     0.73481     0.62284     0.48531     0.34392     0.22277     0.13453     0.77620E-01 0.43852E-01 0.25337E-01
 0.16241E-01 0.12660E-01 0.12660E-01 0.16241E-01 0.25337E-01 0.43852E-01 0.77620E-01 0.13453     0.22277     0.34392    
 0.48531     0.62284     0.71537     0.78838     0.83086     0.84452     0.83086     0.78838     0.71537     0.61536    
 0.49871     0.37916     0.27024     0.18176     0.11665     0.72148E-01 0.43852E-01 0.27727E-01 0.19986E-01 0.17755E-01
 0.19986E-01 0.27727E-01 0.43852E-01 0.72148E-01 0.11665     0.18176     0.27024     0.37916     0.49871     0.61536    
 0.64650     0.71937     0.75928     0.75928     0.71937     0.64650     0.55707     0.46742     0.38338     0.30435    
 0.23147     0.16815     0.11665     0.77620E-01 0.51064E-01 0.35705E-01 0.29001E-01 0.29001E-01 0.35705E-01 0.51064E-01
 0.77620E-01 0.11665     0.16815     0.23147     0.30435     0.38338     0.46742     0.55707     0.51093     0.57636    
 0.60307     0.57636     0.51093     0.44019     0.38734     0.35105     0.31801     0.27842     0.23147     0.18176    
 0.13453     0.94962E-01 0.67000E-01 0.51294E-01 0.46354E-01 0.51294E-01 0.67000E-01 0.94962E-01 0.13453     0.18176    
 0.23147     0.27842     0.31801     0.35105     0.38734     0.44019     0.31410     0.34688     0.34688     0.31410    
 0.28190     0.27382     0.28848     0.30948     0.31801     0.30435     0.27024     0.22277     0.17086     0.12495    
 0.92861E-01 0.77013E-01 0.77013E-01 0.92861E-01 0.12495     0.17086     0.22277     0.27024     0.30435     0.31801    
 0.30948     0.28848     0.27382     0.28190     0.13417     0.13553     0.13417     0.13930     0.16539     0.21833    
 0.28848     0.35105     0.38338     0.37916     0.34392     0.28673     0.22131     0.16464     0.12834     0.11615    
 0.12834     0.16464     0.22131     0.28673     0.34392     0.37916     0.38338     0.35105     0.28848     0.21833    
 0.16539     0.13930     0.44779E-01 0.44779E-01 0.57872E-01 0.93371E-01 0.16539     0.27382     0.38734     0.46742    
 0.49871     0.48531     0.43499     0.35797     0.27462     0.20848     0.17349     0.17349     0.20848     0.27462    
 0.35797     0.43499     0.48531     0.49871     0.46742     0.38734     0.27382     0.16539     0.93371E-01 0.57872E-01
 0.19122E-01 0.26449E-01 0.57872E-01 0.13930     0.28190     0.44019     0.55707     0.61536     0.62284     0.58833    
 0.51581     0.41732     0.32053     0.25339     0.23002     0.25339     0.32053     0.41732     0.51581     0.58833    
 0.62284     0.61536     0.55707     0.44019     0.28190     0.13930     0.57872E-01 0.26449E-01 0.48345E-01 0.13417    
 0.33021     0.55223     0.69876     0.77201     0.79825     0.79241     0.75679     0.68506     0.57768     0.45885    
 0.36882     0.33618     0.36882     0.45885     0.57768     0.68506     0.75679     0.79241     0.79825     0.77201    
 0.69876     0.55223     0.33021     0.13417     0.48345E-01 0.30039E-01 0.13417     0.34688     0.60307     0.75928    
 0.83086     0.85806     0.85946     0.83939     0.79155     0.70553     0.58481     0.46381     0.39041     0.39041    
 0.46381     0.58481     0.70553     0.79155     0.83939     0.85946     0.85806     0.83086     0.75928     0.60307    
 0.34688     0.13417     0.57872E-01 0.57872E-01 0.33021     0.60307     0.78066     0.85909     0.88949     0.89624    
 0.88681     0.85818     0.79860     0.69565     0.56039     0.44464     0.40061     0.44464     0.56039     0.69565    
 0.79860     0.85818     0.88681     0.89624     0.88949     0.85909     0.78066     0.60307     0.33021     0.14200    
 0.93027E-01 0.14200     0.55223     0.75928     0.85909     0.89910     0.91211     0.91029     0.89459     0.85667    
 0.77949     0.65051     0.50091     0.40426     0.40426     0.50091     0.65051     0.77949     0.85667     0.89459    
 0.91029     0.91211     0.89910     0.85909     0.75928     0.55223     0.30113     0.16947     0.16947     0.30113    
 0.69876     0.83086     0.88949     0.91211     0.91730     0.91029     0.88698     0.83287     0.72424     0.55967    
 0.40971     0.35310     0.40971     0.55967     0.72424     0.83287     0.88698     0.91029     0.91730     0.91211    
 0.88949     0.83086     0.69876     0.48112     0.29042     0.22584     0.29042     0.48112     0.77201     0.85806    
 0.89624     0.91029     0.91029     0.89624     0.85806     0.77201     0.61333     0.42293     0.30596     0.30596    
 0.42293     0.61333     0.77201     0.85806     0.89624     0.91029     0.91029     0.89624     0.85806     0.77201    
 0.61333     0.42293     0.30596     0.30596     0.42293     0.61333     0.79825     0.85946     0.88681     0.89459    
 0.88698     0.85806     0.78838     0.64650     0.44019     0.27382     0.21833     0.27382     0.44019     0.64650    
 0.78838     0.85806     0.88698     0.89459     0.88681     0.85946     0.79825     0.68349     0.52333     0.38621    
 0.33569     0.38621     0.52333     0.68349     0.79241     0.83939     0.85818     0.85667     0.83287     0.77201    
 0.64650     0.44857     0.25902     0.16493     0.16493     0.25902     0.44857     0.64650     0.77201     0.83287    
 0.85667     0.85818     0.83939     0.79241     0.70405     0.57361     0.43983     0.35957     0.35957     0.43983    
 0.57361     0.70405     0.75679     0.79155     0.79860     0.77949     0.72424     0.61333     0.44019     0.25902    
 0.14772     0.11511     0.14772     0.25902     0.44019     0.61333     0.72424     0.77949     0.79860     0.79155    
 0.75679     0.68604     0.57754     0.45501     0.36231     0.32907     0.36231     0.45501     0.57754     0.68604    
 0.68506     0.70553     0.69565     0.65051     0.55967     0.42293     0.27382     0.16493     0.11511     0.11511    
 0.16493     0.27382     0.42293     0.55967     0.65051     0.69565     0.70553     0.68506     0.63119     0.54232    
 0.43414     0.34035     0.28872     0.28872     0.34035     0.43414     0.54232     0.63119     0.57768     0.58481    
 0.56039     0.50091     0.40971     0.30596     0.21833     0.16493     0.14772     0.16493     0.21833     0.30596    
 0.40971     0.50091     0.56039     0.58481     0.57768     0.54029     0.47242     0.38353     0.29814     0.24056    
 0.22094     0.24056     0.29814     0.38353     0.47242     0.54029     0.45885     0.46381     0.44464     0.40426    
 0.35310     0.30596     0.27382     0.25902     0.25902     0.27382     0.30596     0.35310     0.40426     0.44464    
 0.46381     0.45885     0.43063     0.38021     0.31258     0.24279     0.18943     0.16212     0.16212     0.18943    
 0.24279     0.31258     0.38021     0.43063     0.36882     0.39041     0.40061     0.40426     0.40971     0.42293    
 0.44019     0.44857     0.44019     0.42293     0.40971     0.40426     0.40061     0.39041     0.36882     0.33542    
 0.29137     0.23889     0.18498     0.14085     0.11395     0.10521     0.11395     0.14085     0.18498     0.23889    
 0.29137     0.33542     0.33618     0.39041     0.44464     0.50091     0.55967     0.61333     0.64650     0.64650    
 0.61333     0.55967     0.50091     0.44464     0.39041     0.33618     0.28235     0.23060     0.18178     0.13731    
 0.10127     0.77568E-01 0.66437E-01 0.66437E-01 0.77568E-01 0.10127     0.13731     0.18178     0.23060     0.28235    
 0.36882     0.46381     0.56039     0.65051     0.72424     0.77201     0.78838     0.77201     0.72424     0.65051    
 0.56039     0.46381     0.36882     0.28235     0.20960     0.15196     0.10767     0.75052E-01 0.53599E-01 0.42130E-01
 0.38634E-01 0.42130E-01 0.53599E-01 0.75052E-01 0.10767     0.15196     0.20960     0.28235     0.45885     0.58481    
 0.69565     0.77949     0.83287     0.85806     0.85806     0.83287     0.77949     0.69565     0.58481     0.45885    
 0.33542     0.23060     0.15196     0.97866E-01 0.62537E-01 0.40783E-01 0.28839E-01 0.23752E-01 0.23752E-01 0.28839E-01
 0.40783E-01 0.62537E-01 0.97866E-01 0.15196     0.23060     0.33542     0.57768     0.70553     0.79860     0.85667    
 0.88698     0.89624     0.88698     0.85667     0.79860     0.70553     0.57768     0.43063     0.29137     0.18178    
 0.10767     0.62537E-01 0.36863E-01 0.23236E-01 0.16871E-01 0.15046E-01 0.16871E-01 0.23236E-01 0.36863E-01 0.62537E-01
 0.10767     0.18178     0.29137     0.43063     0.68506     0.79155     0.85818     0.89459     0.91029     0.91029    
 0.89459     0.85818     0.79155     0.68506     0.54029     0.38021     0.23889     0.13731     0.75052E-01 0.40783E-01
 0.23236E-01 0.14922E-01 0.11676E-01 0.11676E-01 0.14922E-01 0.23236E-01 0.40783E-01 0.75051E-01 0.13731     0.23889    
 0.38021     0.54029     0.75679     0.83939     0.88681     0.91029     0.91730     0.91029     0.88681     0.83939    
 0.75679     0.63119     0.47242     0.31258     0.18498     0.10127     0.53599E-01 0.28839E-01 0.16871E-01 0.11676E-01
 0.10243E-01 0.11676E-01 0.16871E-01 0.28839E-01 0.53599E-01 0.10127     0.18498     0.31258     0.47242     0.63119    
 0.79241     0.85946     0.89624     0.91211     0.91211     0.89624     0.85946     0.79241     0.68604     0.54232    
 0.38353     0.24279     0.14085     0.77568E-01 0.42130E-01 0.23752E-01 0.15046E-01 0.11676E-01 0.11676E-01 0.15046E-01
 0.23752E-01 0.42130E-01 0.77568E-01 0.14085     0.24279     0.38353     0.54232     0.68604     0.79825     0.85806    
 0.88949     0.89910     0.88949     0.85806     0.79825     0.70405     0.57754     0.43414     0.29814     0.18943    
 0.11395     0.66437E-01 0.38634E-01 0.23752E-01 0.16871E-01 0.14922E-01 0.16871E-01 0.23752E-01 0.38634E-01 0.66437E-01
 0.11395     0.18943     0.29814     0.43414     0.57754     0.70405     0.77201     0.83086     0.85909     0.85909    
 0.83086     0.77201     0.68349     0.57361     0.45501     0.34035     0.24056     0.16212     0.10521     0.66437E-01
 0.42130E-01 0.28839E-01 0.23236E-01 0.23236E-01 0.28839E-01 0.42130E-01 0.66437E-01 0.10521     0.16212     0.24056    
 0.34035     0.45501     0.57361     0.68349     0.69876     0.75928     0.78066     0.75928     0.69876     0.61333    
 0.52333     0.43983     0.36231     0.28872     0.22094     0.16212     0.11395     0.77568E-01 0.53599E-01 0.40783E-01
 0.36863E-01 0.40783E-01 0.53599E-01 0.77568E-01 0.11395     0.16212     0.22094     0.28872     0.36231     0.43983    
 0.52333     0.61333     0.55223     0.60307     0.60307     0.55223     0.48112     0.42293     0.38621     0.35957    
 0.32907     0.28872     0.24056     0.18943     0.14085     0.10127     0.75052E-01 0.62537E-01 0.62537E-01 0.75051E-01
 0.10127     0.14085     0.18943     0.24056     0.28872     0.32907     0.35957     0.38621     0.42293     0.48112    
 0.33021     0.34688     0.33021     0.30113     0.29042     0.30596     0.33569     0.35957     0.36231     0.34035    
 0.29814     0.24279     0.18498     0.13731     0.10767     0.97866E-01 0.10767     0.13731     0.18498     0.24279    
 0.29814     0.34035     0.36231     0.35957     0.33569     0.30596     0.29042     0.30113     0.13417     0.13417    
 0.14200     0.16947     0.22584     0.30596     0.38621     0.43983     0.45501     0.43414     0.38353     0.31258    
 0.23889     0.18178     0.15196     0.15196     0.18178     0.23889     0.31258     0.38353     0.43414     0.45501    
 0.43983     0.38621     0.30596     0.22584     0.16947     0.14200     0.48345E-01 0.57872E-01 0.93027E-01 0.16947    
 0.29042     0.42293     0.52333     0.57361     0.57754     0.54232     0.47242     0.38021     0.29137     0.23060    
 0.20960     0.23060     0.29137     0.38021     0.47242     0.54232     0.57754     0.57361     0.52333     0.42293    
 0.29042     0.16947     0.93027E-01 0.57872E-01 0.30039E-01 0.57872E-01 0.14200     0.30113     0.48112     0.61333    
 0.68349     0.70405     0.68604     0.63119     0.54029     0.43063     0.33542     0.28235     0.28235     0.33542    
 0.43063     0.54029     0.63119     0.68604     0.70405     0.68349     0.61333     0.48112     0.30113     0.14200    
 0.57872E-01 0.30039E-01 0.13084     0.31410     0.55223     0.71711     0.79959     0.83287     0.83673     0.81677    
 0.76733     0.67944     0.55925     0.44209     0.37234     0.37234     0.44209     0.55925     0.67944     0.76733    
 0.81677     0.83673     0.83287     0.79959     0.71711     0.55223     0.31410     0.13084     0.62820E-01 0.62820E-01
 0.31410     0.57636     0.75928     0.84452     0.87863     0.88698     0.87784     0.84841     0.78722     0.68294    
 0.54846     0.43515     0.39238     0.43515     0.54846     0.68294     0.78722     0.84841     0.87784     0.88698    
 0.87863     0.84452     0.75928     0.57636     0.31410     0.13930     0.93371E-01 0.13930     0.55223     0.75928    
 0.85909     0.89910     0.91211     0.91029     0.89459     0.85667     0.77949     0.65051     0.50091     0.40426    
 0.40426     0.50091     0.65051     0.77949     0.85667     0.89459     0.91029     0.91211     0.89910     0.85909    
 0.75928     0.55223     0.30113     0.16947     0.16947     0.30113     0.71711     0.84452     0.89910     0.91962    
 0.92405     0.91730     0.89532     0.84372     0.73767     0.57226     0.41804     0.35927     0.41804     0.57226    