 running on    8 total cores
 distrk:  each k-point on    8 cores,    1 groups
 distr:  one band on    2 cores,    4 groups
 using from now: INCAR     
 vasp.5.3.3 18Dez12 (build Jun 24 2015 15:58:02) complex                        
  
 POSCAR found type information on POSCAR  Si
 POSCAR found :  1 types and       2 ions
 scaLAPACK will be used

 ----------------------------------------------------------------------------- 
|                                                                             |
|           W    W    AA    RRRRR   N    N  II  N    N   GGGG   !!!           |
|           W    W   A  A   R    R  NN   N  II  NN   N  G    G  !!!           |
|           W    W  A    A  R    R  N N  N  II  N N  N  G       !!!           |
|           W WW W  AAAAAA  RRRRR   N  N N  II  N  N N  G  GGG   !            |
|           WW  WW  A    A  R   R   N   NN  II  N   NN  G    G                |
|           W    W  A    A  R    R  N    N  II  N    N   GGGG   !!!           |
|                                                                             |
|      For LVTOT=.TRUE. VASP.5.x writes the TOTAL local potential to          |
|      the file LOCPOT. If you want the Hartree contributions only, use       |
|      LVHAR=.TRUE. instead.                                                  |
|                                                                             |
 ----------------------------------------------------------------------------- 

 LDA part: xc-table for Pade appr. of Perdew
 WARNING: stress and forces are not correct
 POSCAR, INCAR and KPOINTS ok, starting setup
 WARNING: small aliasing (wrap around) errors must be expected
 FFT: planning ...
 WAVECAR not read
 charge-density read from file: Silicon                                 
 magnetization density read from file 1
 entering main loop
       N       E                     dE             d eps       ncg     rms          rms(c)
DAV:   1     0.101814058397E+02    0.10181E+02   -0.24839E+03 14416   0.455E+02
DAV:   2    -0.841530072534E+01   -0.18597E+02   -0.16900E+02 18368   0.938E+01
DAV:   3    -0.926578790665E+01   -0.85049E+00   -0.83150E+00 18748   0.147E+01
DAV:   4    -0.927315093585E+01   -0.73630E-02   -0.73579E-02 17068   0.171E+00
DAV:   5    -0.927323206706E+01   -0.81131E-04   -0.81128E-04 18768   0.173E-01
RMM:   6    -0.927323319821E+01   -0.11311E-05   -0.11311E-05 10615   0.230E-02
   1 F= -.92732332E+01 E0= -.92732332E+01  d E =-.531394E-13  mag=    -0.0001
 writing wavefunctions
