 vasp.5.3.3 18Dez12 (build Jun 24 2015 15:58:02) complex                        
  
 executed on             LinuxIFC date 2023.04.23  21:15:13
 running on    8 total cores
 distrk:  each k-point on    8 cores,    1 groups
 distr:  one band on NCORES_PER_BAND=   1 cores,    8 groups


--------------------------------------------------------------------------------------------------------


 INCAR:
 POTCAR:    PAW_PBE Si 05Jan2001                  

 ----------------------------------------------------------------------------- 
|                                                                             |
|           W    W    AA    RRRRR   N    N  II  N    N   GGGG   !!!           |
|           W    W   A  A   R    R  NN   N  II  NN   N  G    G  !!!           |
|           W    W  A    A  R    R  N N  N  II  N N  N  G       !!!           |
|           W WW W  AAAAAA  RRRRR   N  N N  II  N  N N  G  GGG   !            |
|           WW  WW  A    A  R   R   N   NN  II  N   NN  G    G                |
|           W    W  A    A  R    R  N    N  II  N    N   GGGG   !!!           |
|                                                                             |
|      For optimal performance we recommend that you set                      |
|        NPAR = 4 - approx SQRT( number of cores)                             |
|      (number of cores/NPAR must be integer)                                 |
|      This setting will greatly improve the performance of VASP for DFT.     |
|      The default NPAR=number of cores might be grossly inefficient          |
|      on modern multi-core architectures or massively parallel machines.     |
|      Do your own testing.                                                   |
|      Unfortunately you need to use the default for hybrid, GW and RPA       |
|      calculations.                                                          |
|                                                                             |
 ----------------------------------------------------------------------------- 

 POTCAR:    PAW_PBE Si 05Jan2001                  
   VRHFIN =Si: s2p2                                                             
   LEXCH  = PE                                                                  
   EATOM  =   103.0669 eV,    7.5752 Ry                                         
                                                                                
   TITEL  = PAW_PBE Si 05Jan2001                                                
   LULTRA =        F    use ultrasoft PP ?                                      
   IUNSCR =        1    unscreen: 0-lin 1-nonlin 2-no                           
   RPACOR =    1.500    partial core radius                                     
   POMASS =   28.085; ZVAL   =    4.000    mass and valenz                      
   RCORE  =    1.900    outmost cutoff radius                                   
   RWIGS  =    2.480; RWIGS  =    1.312    wigner-seitz radius (au A)           
   ENMAX  =  245.345; ENMIN  =  184.009 eV                                      
   ICORE  =        2    local potential                                         
   LCOR   =        T    correct aug charges                                     
   LPAW   =        T    paw PP                                                  
   EAUG   =  322.069                                                            
   DEXC   =    0.000                                                            
   RMAX   =    1.950    core radius for proj-oper                               
   RAUG   =    1.300    factor for augmentation sphere                          
   RDEP   =    1.993    radius for radial grids                                 
   RDEPT  =    1.837    core radius for aug-charge                              
                                                                                
   Atomic configuration                                                         
    6 entries                                                                   
     n  l   j            E        occ.                                          
     1  0  0.50     -1785.8828   2.0000                                         
     2  0  0.50      -139.4969   2.0000                                         
     2  1  1.50       -95.5546   6.0000                                         
     3  0  0.50       -10.8127   2.0000                                         
     3  1  0.50        -4.0811   2.0000                                         
     3  2  1.50        -4.0817   0.0000                                         
   Description                                                                  
     l       E           TYP  RCUT    TYP  RCUT                                 
     0    -10.8127223     23  1.900                                             
     0     -7.6451159     23  1.900                                             
     1     -4.0811372     23  1.900                                             
     1      2.4879257     23  1.900                                             
     2     -4.0817478      7  1.900                                             
  local pseudopotential read in
  partial core-charges read in
  partial kinetic energy density read in
  atomic valenz-charges read in
  non local Contribution for L=           0  read in
    real space projection operators read in
  non local Contribution for L=           0  read in
    real space projection operators read in
  non local Contribution for L=           1  read in
    real space projection operators read in
  non local Contribution for L=           1  read in
    real space projection operators read in
    PAW grid and wavefunctions read in
 
   number of l-projection  operators is LMAX  =           4
   number of lm-projection operators is LMMAX =           8
 
  PAW_PBE Si 05Jan2001                  :
 energy of atom  1       EATOM= -103.0669
 kinetic energy error for atom=    0.0006 (will be added to EATOM!!)
 
 
 POSCAR: Si Diamond Cubic                        
  positions in direct lattice
  No initial velocities read in
 exchange correlation table for  LEXCH =        8
   RHO(1)=    0.500       N(1)  =     2000
   RHO(2)=  100.500       N(2)  =     4000
 


--------------------------------------------------------------------------------------------------------


 ion  position               nearest neighbor table
   1  0.000  0.000  0.000-   2 2.35   2 2.35   2 2.35   2 2.35
   2  0.250  0.250  0.250-   1 2.35   1 2.35   1 2.35   1 2.35
 
  LATTYP: Found a face centered cubic cell.
 ALAT       =     5.4300000000
  
  Lattice vectors:
  
 A1 = (   0.0000000000,   2.7150000000,   2.7150000000)
 A2 = (   2.7150000000,   0.0000000000,   2.7150000000)
 A3 = (   2.7150000000,   2.7150000000,   0.0000000000)


Analysis of symmetry for initial positions (statically):
=====================================================================
 Subroutine PRICEL returns:
 Original cell was already a primitive cell.
 

 Routine SETGRP: Setting up the symmetry group for a 
 face centered cubic supercell.


 Subroutine GETGRP returns: Found 48 space group operations
 (whereof 24 operations were pure point group operations)
 out of a pool of 48 trial point group operations.


The static configuration has the point symmetry T_d .
 The point group associated with its full space group is O_h .


Analysis of symmetry for dynamics (positions and initial velocities):
=====================================================================
 Subroutine PRICEL returns:
 Original cell was already a primitive cell.
 

 Routine SETGRP: Setting up the symmetry group for a 
 face centered cubic supercell.


 Subroutine GETGRP returns: Found 48 space group operations
 (whereof 24 operations were pure point group operations)
 out of a pool of 48 trial point group operations.


The dynamic configuration has the point symmetry T_d .
 The point group associated with its full space group is O_h .


Analysis of magnetic symmetry:
=====================================================================

 Subroutine MAGSYM returns: Found 48 space group operations
 (whereof 24 operations were pure point group operations)
 out of a pool of 48 trial space group operations
 (whereof 24 operations were pure point group operations)
 and found also     1 'primitive' translations


The magnetic configuration has the point symmetry T_d .
 The point group associated with its full space group is O_h .


 irot  :   1
 --------------------------------------------------------------------
 isymop:   1   0   0
           0   1   0
           0   0   1

 gtrans:     0.0000000     0.0000000     0.0000000

 ptrans:     0.0000000     0.0000000     0.0000000
 rotmap:
 (   1->   1)  (   2->   2) 


 irot  :   2
 --------------------------------------------------------------------
 isymop:   0   0   1
           1   0   0
           0   1   0

 gtrans:     0.0000000     0.0000000     0.0000000

 ptrans:     0.0000000     0.0000000     0.0000000
 rotmap:
 (   1->   1)  (   2->   2) 


 irot  :   3
 --------------------------------------------------------------------
 isymop:   0   1   0
           0   0   1
           1   0   0

 gtrans:     0.0000000     0.0000000     0.0000000

 ptrans:     0.0000000     0.0000000     0.0000000
 rotmap:
 (   1->   1)  (   2->   2) 


 irot  :   4
 --------------------------------------------------------------------
 isymop:  -1  -1  -1
           0   0   1
           1   0   0

 gtrans:     0.0000000     0.0000000     0.0000000

 ptrans:     0.0000000     0.0000000     0.0000000
 rotmap:
 (   1->   1)  (   2->   2) 


 irot  :   5
 --------------------------------------------------------------------
 isymop:  -1  -1  -1
           0   1   0
           0   0   1

 gtrans:     0.0000000     0.0000000     0.0000000

 ptrans:     0.0000000     0.0000000     0.0000000
 rotmap:
 (   1->   1)  (   2->   2) 


 irot  :   6
 --------------------------------------------------------------------
 isymop:  -1  -1  -1
           1   0   0
           0   1   0

 gtrans:     0.0000000     0.0000000     0.0000000

 ptrans:     0.0000000     0.0000000     0.0000000
 rotmap:
 (   1->   1)  (   2->   2) 


 irot  :   7
 --------------------------------------------------------------------
 isymop:   0   1   0
           1   0   0
          -1  -1  -1

 gtrans:     0.0000000     0.0000000     0.0000000

 ptrans:     0.0000000     0.0000000     0.0000000
 rotmap:
 (   1->   1)  (   2->   2) 


 irot  :   8
 --------------------------------------------------------------------
 isymop:   1   0   0
           0   0   1
          -1  -1  -1

 gtrans:     0.0000000     0.0000000     0.0000000

 ptrans:     0.0000000     0.0000000     0.0000000
 rotmap:
 (   1->   1)  (   2->   2) 


 irot  :   9
 --------------------------------------------------------------------
 isymop:   0   0   1
           0   1   0
          -1  -1  -1

 gtrans:     0.0000000     0.0000000     0.0000000

 ptrans:     0.0000000     0.0000000     0.0000000
 rotmap:
 (   1->   1)  (   2->   2) 


 irot  :  10
 --------------------------------------------------------------------
 isymop:   0   0   1
          -1  -1  -1
           0   1   0

 gtrans:     0.0000000     0.0000000     0.0000000

 ptrans:     0.0000000     0.0000000     0.0000000
 rotmap:
 (   1->   1)  (   2->   2) 


 irot  :  11
 --------------------------------------------------------------------
 isymop:   0   1   0
          -1  -1  -1
           1   0   0

 gtrans:     0.0000000     0.0000000     0.0000000

 ptrans:     0.0000000     0.0000000     0.0000000
 rotmap:
 (   1->   1)  (   2->   2) 


 irot  :  12
 --------------------------------------------------------------------
 isymop:   1   0   0
          -1  -1  -1
           0   0   1

 gtrans:     0.0000000     0.0000000     0.0000000

 ptrans:     0.0000000     0.0000000     0.0000000
 rotmap:
 (   1->   1)  (   2->   2) 


 irot  :  13
 --------------------------------------------------------------------
 isymop:  -1  -1  -1
           0   1   0
           1   0   0

 gtrans:     0.0000000     0.0000000     0.0000000

 ptrans:     0.0000000     0.0000000     0.0000000
 rotmap:
 (   1->   1)  (   2->   2) 


 irot  :  14
 --------------------------------------------------------------------
 isymop:  -1  -1  -1
           1   0   0
           0   0   1

 gtrans:     0.0000000     0.0000000     0.0000000

 ptrans:     0.0000000     0.0000000     0.0000000
 rotmap:
 (   1->   1)  (   2->   2) 


 irot  :  15
 --------------------------------------------------------------------
 isymop:  -1  -1  -1
           0   0   1
           0   1   0

 gtrans:     0.0000000     0.0000000     0.0000000

 ptrans:     0.0000000     0.0000000     0.0000000
 rotmap:
 (   1->   1)  (   2->   2) 


 irot  :  16
 --------------------------------------------------------------------
 isymop:   0   1   0
           0   0   1
          -1  -1  -1

 gtrans:     0.0000000     0.0000000     0.0000000

 ptrans:     0.0000000     0.0000000     0.0000000
 rotmap:
 (   1->   1)  (   2->   2) 


 irot  :  17
 --------------------------------------------------------------------
 isymop:   1   0   0
           0   1   0
          -1  -1  -1

 gtrans:     0.0000000     0.0000000     0.0000000

 ptrans:     0.0000000     0.0000000     0.0000000
 rotmap:
 (   1->   1)  (   2->   2) 


 irot  :  18
 --------------------------------------------------------------------
 isymop:   0   0   1
           1   0   0
          -1  -1  -1

 gtrans:     0.0000000     0.0000000     0.0000000

 ptrans:     0.0000000     0.0000000     0.0000000
 rotmap:
 (   1->   1)  (   2->   2) 


 irot  :  19
 --------------------------------------------------------------------
 isymop:   1   0   0
          -1  -1  -1
           0   1   0

 gtrans:     0.0000000     0.0000000     0.0000000

 ptrans:     0.0000000     0.0000000     0.0000000
 rotmap:
 (   1->   1)  (   2->   2) 


 irot  :  20
 --------------------------------------------------------------------
 isymop:   0   0   1
          -1  -1  -1
           1   0   0

 gtrans:     0.0000000     0.0000000     0.0000000

 ptrans:     0.0000000     0.0000000     0.0000000
 rotmap:
 (   1->   1)  (   2->   2) 


 irot  :  21
 --------------------------------------------------------------------
 isymop:   0   1   0
          -1  -1  -1
           0   0   1

 gtrans:     0.0000000     0.0000000     0.0000000

 ptrans:     0.0000000     0.0000000     0.0000000
 rotmap:
 (   1->   1)  (   2->   2) 


 irot  :  22
 --------------------------------------------------------------------
 isymop:   1   0   0
           0   0   1
           0   1   0

 gtrans:     0.0000000     0.0000000     0.0000000

 ptrans:     0.0000000     0.0000000     0.0000000
 rotmap:
 (   1->   1)  (   2->   2) 


 irot  :  23
 --------------------------------------------------------------------
 isymop:   0   1   0
           1   0   0
           0   0   1

 gtrans:     0.0000000     0.0000000     0.0000000

 ptrans:     0.0000000     0.0000000     0.0000000
 rotmap:
 (   1->   1)  (   2->   2) 


 irot  :  24
 --------------------------------------------------------------------
 isymop:   0   0   1
           0   1   0
           1   0   0

 gtrans:     0.0000000     0.0000000     0.0000000

 ptrans:     0.0000000     0.0000000     0.0000000
 rotmap:
 (   1->   1)  (   2->   2) 


 irot  :  25
 --------------------------------------------------------------------
 isymop:  -1   0   0
           0  -1   0
           0   0  -1

 gtrans:     0.2500000     0.2500000     0.2500000

 ptrans:     0.0000000     0.0000000     0.0000000
 rotmap:
 (   1->   2)  (   2->   1) 


 irot  :  26
 --------------------------------------------------------------------
 isymop:   0   0  -1
          -1   0   0
           0  -1   0

 gtrans:     0.2500000     0.2500000     0.2500000

 ptrans:     0.0000000     0.0000000     0.0000000
 rotmap:
 (   1->   2)  (   2->   1) 


 irot  :  27
 --------------------------------------------------------------------
 isymop:   0  -1   0
           0   0  -1
          -1   0   0

 gtrans:     0.2500000     0.2500000     0.2500000

 ptrans:     0.0000000     0.0000000     0.0000000
 rotmap:
 (   1->   2)  (   2->   1) 


 irot  :  28
 --------------------------------------------------------------------
 isymop:   1   1   1
           0   0  -1
          -1   0   0

 gtrans:     0.2500000     0.2500000     0.2500000

 ptrans:     0.0000000     0.0000000     0.0000000
 rotmap:
 (   1->   2)  (   2->   1) 


 irot  :  29
 --------------------------------------------------------------------
 isymop:   1   1   1
           0  -1   0
           0   0  -1

 gtrans:     0.2500000     0.2500000     0.2500000

 ptrans:     0.0000000     0.0000000     0.0000000
 rotmap:
 (   1->   2)  (   2->   1) 


 irot  :  30
 --------------------------------------------------------------------
 isymop:   1   1   1
          -1   0   0
           0  -1   0

 gtrans:     0.2500000     0.2500000     0.2500000

 ptrans:     0.0000000     0.0000000     0.0000000
 rotmap:
 (   1->   2)  (   2->   1) 


 irot  :  31
 --------------------------------------------------------------------
 isymop:   0  -1   0
          -1   0   0
           1   1   1

 gtrans:     0.2500000     0.2500000     0.2500000

 ptrans:     0.0000000     0.0000000     0.0000000
 rotmap:
 (   1->   2)  (   2->   1) 


 irot  :  32
 --------------------------------------------------------------------
 isymop:  -1   0   0
           0   0  -1
           1   1   1

 gtrans:     0.2500000     0.2500000     0.2500000

 ptrans:     0.0000000     0.0000000     0.0000000
 rotmap:
 (   1->   2)  (   2->   1) 


 irot  :  33
 --------------------------------------------------------------------
 isymop:   0   0  -1
           0  -1   0
           1   1   1

 gtrans:     0.2500000     0.2500000     0.2500000

 ptrans:     0.0000000     0.0000000     0.0000000
 rotmap:
 (   1->   2)  (   2->   1) 


 irot  :  34
 --------------------------------------------------------------------
 isymop:   0   0  -1
           1   1   1
           0  -1   0

 gtrans:     0.2500000     0.2500000     0.2500000

 ptrans:     0.0000000     0.0000000     0.0000000
 rotmap:
 (   1->   2)  (   2->   1) 


 irot  :  35
 --------------------------------------------------------------------
 isymop:   0  -1   0
           1   1   1
          -1   0   0

 gtrans:     0.2500000     0.2500000     0.2500000

 ptrans:     0.0000000     0.0000000     0.0000000
 rotmap:
 (   1->   2)  (   2->   1) 


 irot  :  36
 --------------------------------------------------------------------
 isymop:  -1   0   0
           1   1   1
           0   0  -1

 gtrans:     0.2500000     0.2500000     0.2500000

 ptrans:     0.0000000     0.0000000     0.0000000
 rotmap:
 (   1->   2)  (   2->   1) 


 irot  :  37
 --------------------------------------------------------------------
 isymop:   1   1   1
           0  -1   0
          -1   0   0

 gtrans:     0.2500000     0.2500000     0.2500000

 ptrans:     0.0000000     0.0000000     0.0000000
 rotmap:
 (   1->   2)  (   2->   1) 


 irot  :  38
 --------------------------------------------------------------------
 isymop:   1   1   1
          -1   0   0
           0   0  -1

 gtrans:     0.2500000     0.2500000     0.2500000

 ptrans:     0.0000000     0.0000000     0.0000000
 rotmap:
 (   1->   2)  (   2->   1) 


 irot  :  39
 --------------------------------------------------------------------
 isymop:   1   1   1
           0   0  -1
           0  -1   0

 gtrans:     0.2500000     0.2500000     0.2500000

 ptrans:     0.0000000     0.0000000     0.0000000
 rotmap:
 (   1->   2)  (   2->   1) 


 irot  :  40
 --------------------------------------------------------------------
 isymop:   0  -1   0
           0   0  -1
           1   1   1

 gtrans:     0.2500000     0.2500000     0.2500000

 ptrans:     0.0000000     0.0000000     0.0000000
 rotmap:
 (   1->   2)  (   2->   1) 


 irot  :  41
 --------------------------------------------------------------------
 isymop:  -1   0   0
           0  -1   0
           1   1   1

 gtrans:     0.2500000     0.2500000     0.2500000

 ptrans:     0.0000000     0.0000000     0.0000000
 rotmap:
 (   1->   2)  (   2->   1) 


 irot  :  42
 --------------------------------------------------------------------
 isymop:   0   0  -1
          -1   0   0
           1   1   1

 gtrans:     0.2500000     0.2500000     0.2500000

 ptrans:     0.0000000     0.0000000     0.0000000
 rotmap:
 (   1->   2)  (   2->   1) 


 irot  :  43
 --------------------------------------------------------------------
 isymop:  -1   0   0
           1   1   1
           0  -1   0

 gtrans:     0.2500000     0.2500000     0.2500000

 ptrans:     0.0000000     0.0000000     0.0000000
 rotmap:
 (   1->   2)  (   2->   1) 


 irot  :  44
 --------------------------------------------------------------------
 isymop:   0   0  -1
           1   1   1
          -1   0   0

 gtrans:     0.2500000     0.2500000     0.2500000

 ptrans:     0.0000000     0.0000000     0.0000000
 rotmap:
 (   1->   2)  (   2->   1) 


 irot  :  45
 --------------------------------------------------------------------
 isymop:   0  -1   0
           1   1   1
           0   0  -1

 gtrans:     0.2500000     0.2500000     0.2500000

 ptrans:     0.0000000     0.0000000     0.0000000
 rotmap:
 (   1->   2)  (   2->   1) 


 irot  :  46
 --------------------------------------------------------------------
 isymop:  -1   0   0
           0   0  -1
           0  -1   0

 gtrans:     0.2500000     0.2500000     0.2500000

 ptrans:     0.0000000     0.0000000     0.0000000
 rotmap:
 (   1->   2)  (   2->   1) 


 irot  :  47
 --------------------------------------------------------------------
 isymop:   0  -1   0
          -1   0   0
           0   0  -1

 gtrans:     0.2500000     0.2500000     0.2500000

 ptrans:     0.0000000     0.0000000     0.0000000
 rotmap:
 (   1->   2)  (   2->   1) 


 irot  :  48
 --------------------------------------------------------------------
 isymop:   0   0  -1
           0  -1   0
          -1   0   0

 gtrans:     0.2500000     0.2500000     0.2500000

 ptrans:     0.0000000     0.0000000     0.0000000
 rotmap:
 (   1->   2)  (   2->   1) 
 
 
 KPOINTS: Automatic mesh                          

Automatic generation of k-mesh.
Space group operators:
 irot       det(A)        alpha          n_x          n_y          n_z        tau_x        tau_y        tau_z
    1     1.000000     0.000001     1.000000     0.000000     0.000000     0.000000     0.000000     0.000000
    2     1.000000   120.000000    -0.577350    -0.577350    -0.577350     0.000000     0.000000     0.000000
    3     1.000000   120.000000     0.577350     0.577350     0.577350     0.000000     0.000000     0.000000
    4    -1.000000    90.000000     0.000000     0.000000    -1.000000     0.000000     0.000000     0.000000
    5    -1.000000   180.000000     0.000000     0.707107     0.707107     0.000000     0.000000     0.000000
    6    -1.000000    90.000000     0.000000     1.000000     0.000000     0.000000     0.000000     0.000000
    7     1.000000   180.000000     0.000000     0.000000     1.000000     0.000000     0.000000     0.000000
    8     1.000000   120.000000    -0.577350     0.577350     0.577350     0.000000     0.000000     0.000000
    9     1.000000   120.000000    -0.577350     0.577350    -0.577350     0.000000     0.000000     0.000000
   10    -1.000000    90.000000     0.000000     0.000000     1.000000     0.000000     0.000000     0.000000
   11    -1.000000    90.000000    -1.000000     0.000000     0.000000     0.000000     0.000000     0.000000
   12    -1.000000   180.000000     0.707107     0.000000     0.707107     0.000000     0.000000     0.000000
   13     1.000000   120.000000     0.577350    -0.577350     0.577350     0.000000     0.000000     0.000000
   14     1.000000   120.000000    -0.577350    -0.577350     0.577350     0.000000     0.000000     0.000000
   15     1.000000   180.000000     1.000000     0.000000     0.000000     0.000000     0.000000     0.000000
   16    -1.000000    90.000000     0.000000    -1.000000     0.000000     0.000000     0.000000     0.000000
   17    -1.000000   180.000000     0.707107     0.707107     0.000000     0.000000     0.000000     0.000000
   18    -1.000000    90.000000     1.000000     0.000000     0.000000     0.000000     0.000000     0.000000
   19     1.000000   120.000000     0.577350    -0.577350    -0.577350     0.000000     0.000000     0.000000
   20     1.000000   180.000000     0.000000     1.000000     0.000000     0.000000     0.000000     0.000000
   21     1.000000   120.000000     0.577350     0.577350    -0.577350     0.000000     0.000000     0.000000
   22    -1.000000   180.000000     0.000000    -0.707107     0.707107     0.000000     0.000000     0.000000
   23    -1.000000   180.000000     0.707107    -0.707107     0.000000     0.000000     0.000000     0.000000
   24    -1.000000   180.000000     0.707107     0.000000    -0.707107     0.000000     0.000000     0.000000
   25    -1.000000     0.000001     1.000000     0.000000     0.000000     0.250000     0.250000     0.250000
   26    -1.000000   120.000000    -0.577350    -0.577350    -0.577350     0.250000     0.250000     0.250000
   27    -1.000000   120.000000     0.577350     0.577350     0.577350     0.250000     0.250000     0.250000
   28     1.000000    90.000000     0.000000     0.000000    -1.000000     0.250000     0.250000     0.250000
   29     1.000000   180.000000     0.000000     0.707107     0.707107     0.250000     0.250000     0.250000
   30     1.000000    90.000000     0.000000     1.000000     0.000000     0.250000     0.250000     0.250000
   31    -1.000000   180.000000     0.000000     0.000000     1.000000     0.250000     0.250000     0.250000
   32    -1.000000   120.000000    -0.577350     0.577350     0.577350     0.250000     0.250000     0.250000
   33    -1.000000   120.000000    -0.577350     0.577350    -0.577350     0.250000     0.250000     0.250000
   34     1.000000    90.000000     0.000000     0.000000     1.000000     0.250000     0.250000     0.250000
   35     1.000000    90.000000    -1.000000     0.000000     0.000000     0.250000     0.250000     0.250000
   36     1.000000   180.000000     0.707107     0.000000     0.707107     0.250000     0.250000     0.250000
   37    -1.000000   120.000000     0.577350    -0.577350     0.577350     0.250000     0.250000     0.250000
   38    -1.000000   120.000000    -0.577350    -0.577350     0.577350     0.250000     0.250000     0.250000
   39    -1.000000   180.000000     1.000000     0.000000     0.000000     0.250000     0.250000     0.250000
   40     1.000000    90.000000     0.000000    -1.000000     0.000000     0.250000     0.250000     0.250000
   41     1.000000   180.000000     0.707107     0.707107     0.000000     0.250000     0.250000     0.250000
   42     1.000000    90.000000     1.000000     0.000000     0.000000     0.250000     0.250000     0.250000
   43    -1.000000   120.000000     0.577350    -0.577350    -0.577350     0.250000     0.250000     0.250000
   44    -1.000000   180.000000     0.000000     1.000000     0.000000     0.250000     0.250000     0.250000
   45    -1.000000   120.000000     0.577350     0.577350    -0.577350     0.250000     0.250000     0.250000
   46     1.000000   180.000000     0.000000    -0.707107     0.707107     0.250000     0.250000     0.250000
   47     1.000000   180.000000     0.707107    -0.707107     0.000000     0.250000     0.250000     0.250000
   48     1.000000   180.000000     0.707107     0.000000    -0.707107     0.250000     0.250000     0.250000
 
 Subroutine IBZKPT returns following result:
 ===========================================
 
 Found     29 irreducible k-points:
 
 Following reciprocal coordinates:
            Coordinates               Weight
  0.000000  0.000000  0.000000      1.000000
  0.125000  0.000000  0.000000      8.000000
  0.250000  0.000000  0.000000      8.000000
  0.375000  0.000000  0.000000      8.000000
  0.500000  0.000000  0.000000      4.000000
  0.125000  0.125000  0.000000      6.000000
  0.250000  0.125000  0.000000     24.000000
  0.375000  0.125000  0.000000     24.000000
  0.500000  0.125000  0.000000     24.000000
 -0.375000  0.125000  0.000000     24.000000
 -0.250000  0.125000  0.000000     24.000000
 -0.125000  0.125000  0.000000     12.000000
  0.250000  0.250000  0.000000      6.000000
  0.375000  0.250000  0.000000     24.000000
  0.500000  0.250000  0.000000     24.000000
 -0.375000  0.250000  0.000000     24.000000
 -0.250000  0.250000  0.000000     12.000000
  0.375000  0.375000  0.000000      6.000000
  0.500000  0.375000  0.000000     24.000000
 -0.375000  0.375000  0.000000     12.000000
  0.500000  0.500000  0.000000      3.000000
  0.375000  0.250000  0.125000     24.000000
  0.500000  0.250000  0.125000     48.000000
 -0.375000  0.250000  0.125000     24.000000
  0.500000  0.375000  0.125000     24.000000
 -0.375000  0.375000  0.125000     48.000000
 -0.250000  0.375000  0.125000     24.000000
 -0.375000  0.500000  0.125000     12.000000
 -0.250000  0.500000  0.250000      6.000000
 
 Following cartesian coordinates:
            Coordinates               Weight
  0.000000  0.000000  0.000000      1.000000
 -0.125000  0.125000  0.125000      8.000000
 -0.250000  0.250000  0.250000      8.000000
 -0.375000  0.375000  0.375000      8.000000
 -0.500000  0.500000  0.500000      4.000000
  0.000000  0.000000  0.250000      6.000000
 -0.125000  0.125000  0.375000     24.000000
 -0.250000  0.250000  0.500000     24.000000
 -0.375000  0.375000  0.625000     24.000000
  0.500000 -0.500000 -0.250000     24.000000
  0.375000 -0.375000 -0.125000     24.000000
  0.250000 -0.250000  0.000000     12.000000
  0.000000  0.000000  0.500000      6.000000
 -0.125000  0.125000  0.625000     24.000000
 -0.250000  0.250000  0.750000     24.000000
  0.625000 -0.625000 -0.125000     24.000000
  0.500000 -0.500000  0.000000     12.000000
  0.000000  0.000000  0.750000      6.000000
 -0.125000  0.125000  0.875000     24.000000
  0.750000 -0.750000  0.000000     12.000000
  0.000000  0.000000  1.000000      3.000000
 -0.000000  0.250000  0.500000     24.000000
 -0.125000  0.375000  0.625000     48.000000
  0.750000 -0.500000 -0.250000     24.000000
  0.000000  0.250000  0.750000     24.000000
  0.875000 -0.625000 -0.125000     48.000000
  0.750000 -0.500000  0.000000     24.000000
  1.000000 -0.750000 -0.000000     12.000000
  1.000000 -0.500000  0.000000      6.000000
 
 TETIRR: Found     76 inequivalent tetrahedra from     3072


--------------------------------------------------------------------------------------------------------




 Dimension of arrays:
   k-points           NKPTS =     29   k-points in BZ     NKDIM =     29   number of bands    NBANDS=     16
   number of dos      NEDOS =    301   number of ions     NIONS =      2
   non local maximal  LDIM  =      4   non local SUM 2l+1 LMDIM =      8
   total plane-waves  NPLWV =  21952
   max r-space proj   IRMAX =      1   max aug-charges    IRDMAX=  18535
   dimension x,y,z NGX =    28 NGY =   28 NGZ =   28
   dimension x,y,z NGXF=    56 NGYF=   56 NGZF=   56
   support grid    NGXF=    56 NGYF=   56 NGZF=   56
   ions per type =               2
 NGX,Y,Z   is equivalent  to a cutoff of  12.12, 12.12, 12.12 a.u.
 NGXF,Y,Z  is equivalent  to a cutoff of  24.25, 24.25, 24.25 a.u.


 I would recommend the setting:
   dimension x,y,z NGX =    28 NGY =   28 NGZ =   28
 SYSTEM =  Silicon Diamond (relax)                 
 POSCAR =  Si Diamond Cubic                        

 Startparameter for this run:
   NWRITE =      2    write-flag & timer
   PREC   = accura    normal or accurate (medium, high low for compatibility)
   ISTART =      0    job   : 0-new  1-cont  2-samecut
   ICHARG =      2    charge: 1-file 2-atom 10-const
   ISPIN  =      2    spin polarized calculation?
   LNONCOLLINEAR =      F non collinear calculations
   LSORBIT =      F    spin-orbit coupling
   INIWAV =      1    electr: 0-lowe 1-rand  2-diag
   LASPH  =      T    aspherical Exc in radial PAW
   METAGGA=      F    non-selfconsistent MetaGGA calc.

 Electronic Relaxation 1
   ENCUT  =  500.0 eV  36.75 Ry    6.06 a.u.   7.00  7.00  7.00*2*pi/ulx,y,z
   ENINI  =  500.0     initial cutoff
   ENAUG  =  322.1 eV  augmentation charge cutoff
   NELM   =    100;   NELMIN=  2; NELMDL= -5     # of ELM steps 
   EDIFF  = 0.1E-04   stopping-criterion for ELM
   LREAL  =      F    real-space projection
   NLSPLINE    = F    spline interpolate recip. space projectors
   LCOMPAT=      F    compatible to vasp.4.4
   GGA_COMPAT  = T    GGA compatible to vasp.4.4-vasp.4.6
   LMAXPAW     = -100 max onsite density
   LMAXMIX     =    2 max onsite mixed and CHGCAR
   VOSKOWN=      0    Vosko Wilk Nusair interpolation
   ROPT   =    0.00000
 Ionic relaxation
   EDIFFG = -.1E-01   stopping-criterion for IOM
   NSW    =    200    number of steps for IOM
   NBLOCK =      1;   KBLOCK =    200    inner block; outer block 
   IBRION =      2    ionic relax: 0-MD 1-quasi-New 2-CG
   NFREE  =      1    steps in history (QN), initial steepest desc. (CG)
   ISIF   =      3    stress and relaxation
   IWAVPR =     11    prediction:  0-non 1-charg 2-wave 3-comb
   ISYM   =      2    0-nonsym 1-usesym 2-fastsym
   LCORR  =      T    Harris-Foulkes like correction to forces

   POTIM  = 0.5000    time-step for ionic-motion
   TEIN   =    0.0    initial temperature
   TEBEG  =    0.0;   TEEND  =   0.0 temperature during run
   SMASS  =  -3.00    Nose mass-parameter (am)
   estimated Nose-frequenzy (Omega)   =  0.10E-29 period in steps =****** mass=  -0.337E-27a.u.
   SCALEE = 1.0000    scale energy and forces
   NPACO  =    256;   APACO  = 16.0  distance and # of slots for P.C.
   PSTRESS=    0.0 pullay stress

  Mass of Ions in am
   POMASS =  28.09
  Ionic Valenz
   ZVAL   =   4.00
  Atomic Wigner-Seitz radii
   RWIGS  =  -1.00
  virtual crystal weights 
   VCA    =   1.00
   NELECT =       8.0000    total number of electrons
   NUPDOWN=      -1.0000    fix difference up-down

 DOS related values:
   EMIN   =  10.00;   EMAX   =-10.00  energy-range for DOS
   EFERMI =   0.00
   ISMEAR =    -5;   SIGMA  =   0.20  broadening in eV -4-tet -1-fermi 0-gaus

 Electronic relaxation 2 (details)
   IALGO  =     38    algorithm
   LDIAG  =      T    sub-space diagonalisation (order eigenvalues)
   LSUBROT=      T    optimize rotation matrix (better conditioning)
   TURBO    =      0    0=normal 1=particle mesh
   IRESTART =      0    0=no restart 2=restart with 2 vectors
   NREBOOT  =      0    no. of reboots
   NMIN     =      0    reboot dimension
   EREF     =   0.00    reference energy to select bands
   IMIX   =      4    mixing-type and parameters
     AMIX     =   0.40;   BMIX     =  1.00
     AMIX_MAG =   1.60;   BMIX_MAG =  1.00
     AMIN     =   0.10
     WC   =   100.;   INIMIX=   1;  MIXPRE=   1;  MAXMIX= -45

 Intra band minimization:
   WEIMIN = 0.0010     energy-eigenvalue tresh-hold
   EBREAK =  0.16E-06  absolut break condition
   DEPER  =   0.30     relativ break condition  

   TIME   =   0.40     timestep for ELM

  volume/ion in A,a.u.               =      20.01       135.05
  Fermi-wavevector in a.u.,A,eV,Ry     =   0.957176  1.808800 12.465458  0.916185
  Thomas-Fermi vector in A             =   2.086170
 
 Write flags
   LWAVE  =      T    write WAVECAR
   LCHARG =      T    write CHGCAR
   LVTOT  =      T    write LOCPOT, total local potential
   LVHAR  =      F    write LOCPOT, Hartree potential only
   LELF   =      T    write electronic localiz. function (ELF)
   LORBIT =     12    0 simple, 1 ext, 2 COOP (PROOUT)


 Dipole corrections
   LMONO  =      F    monopole corrections only (constant potential shift)
   LDIPOL =      F    correct potential (dipole corrections)
   IDIPOL =      0    1-x, 2-y, 3-z, 4-all directions 
   EPSILON=  1.0000000 bulk dielectric constant

 Exchange correlation treatment:
   GGA     =    --    GGA type
   LEXCH   =     8    internal setting for exchange type
   VOSKOWN=      0    Vosko Wilk Nusair interpolation
   LHFCALC =     F    Hartree Fock is set to
   LHFONE  =     F    Hartree Fock one center treatment
   AEXX    =    0.0000 exact exchange contribution

 Linear response parameters
   LEPSILON=     F    determine dielectric tensor
   LRPA    =     F    only Hartree local field effects (RPA)
   LNABLA  =     F    use nabla operator in PAW spheres
   LVEL    =     F    velocity operator in full k-point grid
   LINTERFAST=   F  fast interpolation
   KINTER  =     0    interpolate to denser k-point grid
   CSHIFT  =0.1000    complex shift for real part using Kramers Kronig
   OMEGAMAX=  -1.0    maximum frequency
   DEG_THRESHOLD= 0.2000000E-02 threshold for treating states as degnerate
   RTIME   =    0.100 relaxation time in fs

 Orbital magnetization related:
   ORBITALMAG=     F  switch on orbital magnetization
   LCHIMAG   =     F  perturbation theory with respect to B field
   DQ        =  0.001000  dq finite difference perturbation B field



--------------------------------------------------------------------------------------------------------


 conjugate gradient relaxation of ions
 charge density and potential will be updated during run
 spin polarized calculation
 Variant of blocked Davidson
 Davidson routine will perform the subspace rotation
 perform sub-space diagonalisation
    after iterative eigenvector-optimisation
 modified Broyden-mixing scheme, WC =      100.0
 initial mixing is a Kerker type mixing with AMIX =  0.4000 and BMIX =      1.0000
 Hartree-type preconditioning will be used
 using additional bands           12
 reciprocal scheme for non local part
 use partial core corrections
 calculate Harris-corrections to forces 
   (improved forces if not selfconsistent)
 use gradient corrections 
 use of overlap-Matrix (Vanderbilt PP)
 Fermi weights with tetrahedron method with Bloechl corrections


--------------------------------------------------------------------------------------------------------


  energy-cutoff  :      500.00
  volume of cell :       40.03
      direct lattice vectors                 reciprocal lattice vectors
     0.000000000  2.715000000  2.715000000    -0.184162063  0.184162063  0.184162063
     2.715000000  0.000000000  2.715000000     0.184162063 -0.184162063  0.184162063
     2.715000000  2.715000000  0.000000000     0.184162063  0.184162063 -0.184162063

  length of vectors
     3.839589822  3.839589822  3.839589822     0.318978049  0.318978049  0.318978049


 
 k-points in units of 2pi/SCALE and weight: Automatic mesh                          
   0.00000000  0.00000000  0.00000000       0.002
  -0.12500000  0.12500000  0.12500000       0.016
  -0.25000000  0.25000000  0.25000000       0.016
  -0.37500000  0.37500000  0.37500000       0.016
  -0.50000000  0.50000000  0.50000000       0.008
   0.00000000  0.00000000  0.25000000       0.012
  -0.12500000  0.12500000  0.37500000       0.047
  -0.25000000  0.25000000  0.50000000       0.047
  -0.37500000  0.37500000  0.62500000       0.047
   0.50000000 -0.50000000 -0.25000000       0.047
   0.37500000 -0.37500000 -0.12500000       0.047
   0.25000000 -0.25000000  0.00000000       0.023
   0.00000000  0.00000000  0.50000000       0.012
  -0.12500000  0.12500000  0.62500000       0.047
  -0.25000000  0.25000000  0.75000000       0.047
   0.62500000 -0.62500000 -0.12500000       0.047
   0.50000000 -0.50000000  0.00000000       0.023
   0.00000000  0.00000000  0.75000000       0.012
  -0.12500000  0.12500000  0.87500000       0.047
   0.75000000 -0.75000000  0.00000000       0.023
   0.00000000  0.00000000  1.00000000       0.006
  -0.00000000  0.25000000  0.50000000       0.047
  -0.12500000  0.37500000  0.62500000       0.094
   0.75000000 -0.50000000 -0.25000000       0.047
   0.00000000  0.25000000  0.75000000       0.047
   0.87500000 -0.62500000 -0.12500000       0.094
   0.75000000 -0.50000000  0.00000000       0.047
   1.00000000 -0.75000000 -0.00000000       0.023
   1.00000000 -0.50000000  0.00000000       0.012
 
 k-points in reciprocal lattice and weights: Automatic mesh                          
   0.00000000  0.00000000  0.00000000       0.002
   0.12500000  0.00000000  0.00000000       0.016
   0.25000000  0.00000000  0.00000000       0.016
   0.37500000  0.00000000  0.00000000       0.016
   0.50000000  0.00000000  0.00000000       0.008
   0.12500000  0.12500000  0.00000000       0.012
   0.25000000  0.12500000  0.00000000       0.047
   0.37500000  0.12500000  0.00000000       0.047
   0.50000000  0.12500000  0.00000000       0.047
  -0.37500000  0.12500000  0.00000000       0.047
  -0.25000000  0.12500000  0.00000000       0.047
  -0.12500000  0.12500000  0.00000000       0.023
   0.25000000  0.25000000  0.00000000       0.012
   0.37500000  0.25000000  0.00000000       0.047
   0.50000000  0.25000000  0.00000000       0.047
  -0.37500000  0.25000000  0.00000000       0.047
  -0.25000000  0.25000000  0.00000000       0.023
   0.37500000  0.37500000  0.00000000       0.012
   0.50000000  0.37500000  0.00000000       0.047
  -0.37500000  0.37500000  0.00000000       0.023
   0.50000000  0.50000000  0.00000000       0.006
   0.37500000  0.25000000  0.12500000       0.047
   0.50000000  0.25000000  0.12500000       0.094
  -0.37500000  0.25000000  0.12500000       0.047
   0.50000000  0.37500000  0.12500000       0.047
  -0.37500000  0.37500000  0.12500000       0.094
  -0.25000000  0.37500000  0.12500000       0.047
  -0.37500000  0.50000000  0.12500000       0.023
  -0.25000000  0.50000000  0.25000000       0.012
 
 position of ions in fractional coordinates (direct lattice) 
   0.00000000  0.00000000  0.00000000
   0.25000000  0.25000000  0.25000000
 
 position of ions in cartesian coordinates  (Angst):
   0.00000000  0.00000000  0.00000000
   1.35750000  1.35750000  1.35750000
 


--------------------------------------------------------------------------------------------------------


 k-point  1 :   0.0000 0.0000 0.0000  plane waves:     965
 k-point  2 :   0.1250 0.0000 0.0000  plane waves:     989
 k-point  3 :   0.2500 0.0000 0.0000  plane waves:    1001
 k-point  4 :   0.3750 0.0000 0.0000  plane waves:    1017
 k-point  5 :   0.5000 0.0000 0.0000  plane waves:    1008
 k-point  6 :   0.1250 0.1250 0.0000  plane waves:     994
 k-point  7 :   0.2500 0.1250 0.0000  plane waves:    1002
 k-point  8 :   0.3750 0.1250 0.0000  plane waves:    1004
 k-point  9 :   0.5000 0.1250 0.0000  plane waves:    1015
 k-point 10 :  -0.3750 0.1250 0.0000  plane waves:    1016
 k-point 11 :  -0.2500 0.1250 0.0000  plane waves:    1008
 k-point 12 :  -0.1250 0.1250 0.0000  plane waves:     997
 k-point 13 :   0.2500 0.2500 0.0000  plane waves:     998
 k-point 14 :   0.3750 0.2500 0.0000  plane waves:    1021
 k-point 15 :   0.5000 0.2500 0.0000  plane waves:    1014
 k-point 16 :  -0.3750 0.2500 0.0000  plane waves:    1009
 k-point 17 :  -0.2500 0.2500 0.0000  plane waves:    1019
 k-point 18 :   0.3750 0.3750 0.0000  plane waves:    1026
 k-point 19 :   0.5000 0.3750 0.0000  plane waves:    1011
 k-point 20 :  -0.3750 0.3750 0.0000  plane waves:    1011
 k-point 21 :   0.5000 0.5000 0.0000  plane waves:    1034
 k-point 22 :   0.3750 0.2500 0.1250  plane waves:    1019
 k-point 23 :   0.5000 0.2500 0.1250  plane waves:    1018
 k-point 24 :  -0.3750 0.2500 0.1250  plane waves:    1034
 k-point 25 :   0.5000 0.3750 0.1250  plane waves:    1026
 k-point 26 :  -0.3750 0.3750 0.1250  plane waves:    1019
 k-point 27 :  -0.2500 0.3750 0.1250  plane waves:    1017
 k-point 28 :  -0.3750 0.5000 0.1250  plane waves:    1012
 k-point 29 :  -0.2500 0.5000 0.2500  plane waves:    1036

 maximum and minimum number of plane-waves per node :      1036      965

 maximum number of plane-waves:      1036
 maximum index in each direction: 
   IXMAX=    7   IYMAX=    6   IZMAX=    7
   IXMIN=   -7   IYMIN=   -7   IZMIN=   -7

 WARNING: aliasing errors must be expected set NGX to  30 to avoid them
 NGY is ok and might be reduce to  28
 WARNING: aliasing errors must be expected set NGZ to  30 to avoid them
 aliasing errors are usually negligible using standard VASP settings
 and one can safely disregard these warnings

 serial   3D FFT for wavefunctions
 parallel 3D FFT for charge:
    minimum data exchange during FFTs selected (reduces bandwidth)


 total amount of memory used by VASP on root node    38197. kBytes
========================================================================

   base      :      30000. kBytes
   nonl-proj :       1963. kBytes
   fftplans  :        858. kBytes
   grid      :       3405. kBytes
   one-center:         12. kBytes
   wavefun   :       1959. kBytes
 
 Broyden mixing: mesh for mixing (old mesh)
   NGX = 13   NGY = 13   NGZ = 13
  (NGX  = 56   NGY  = 56   NGZ  = 56)
  gives a total of   2197 points

 initial charge density was supplied:
 charge density of overlapping atoms calculated
 number of electron       8.0000000 magnetization       2.0000000
 keeping initial charge density in first step


--------------------------------------------------------------------------------------------------------


 Maximum index for augmentation-charges         2245 (set IRDMAX)


--------------------------------------------------------------------------------------------------------


 First call to EWALD:  gamma=   0.518
 Maximum number of real-space cells 3x 3x 3
 Maximum number of reciprocal cells 3x 3x 3

 FEWALD executed in parallel
    FEWALD:  cpu time    0.00: real time    0.00


----------------------------------------- Iteration    1(   1)  ---------------------------------------


    POTLOK:  cpu time    0.04: real time    0.04
    SETDIJ:  cpu time    0.24: real time    0.24
     EDDAV:  cpu time    0.63: real time    0.63
 BZINTS: Fermi energy:  8.805012;  8.000000 electrons
         Band energy:  20.015282;  BLOECHL correction: -0.097200
       DOS:  cpu time    0.00: real time    0.00
    --------------------------------------------
      LOOP:  cpu time    0.91: real time    0.92

 eigenvalue-minimisations  :  1872
 total energy-change (2. order) : 0.6767657E+01  (-0.2888873E+03)
 number of electron       8.0000000 magnetization       2.0000000
 augmentation part        8.0000000 magnetization       2.0000000

 Free energy of the ion-electron system (eV)
  ---------------------------------------------------
  alpha Z        PSCENC =         3.36414726
  Ewald energy   TEWEN  =      -228.56352493
  -1/2 Hartree   DENC   =       -11.00108242
  -exchange  EXHF       =         0.00000000
  -V(xc)+E(xc)   XCENC  =       -18.37848594
  PAW double counting   =       176.06834157     -140.86953430
  entropy T*S    EENTRO =         0.00000000
  eigenvalues    EBANDS =        20.01528208
  atomic energy  EATOM  =       206.13251344
  ---------------------------------------------------
  free energy    TOTEN  =         6.76765677 eV

  energy without entropy =        6.76765677  energy(sigma->0) =        6.76765677


--------------------------------------------------------------------------------------------------------




----------------------------------------- Iteration    1(   2)  ---------------------------------------


     EDDAV:  cpu time    0.79: real time    0.79
 BZINTS: Fermi energy:  5.887081;  8.000000 electrons
         Band energy:   3.250757;  BLOECHL correction: -0.001269
       DOS:  cpu time    0.00: real time    0.00
    --------------------------------------------
      LOOP:  cpu time    0.79: real time    0.80

 eigenvalue-minimisations  :  2512
 total energy-change (2. order) :-0.1676453E+02  (-0.1610906E+02)
 number of electron       8.0000000 magnetization       2.0000000
 augmentation part        8.0000000 magnetization       2.0000000

 Free energy of the ion-electron system (eV)
  ---------------------------------------------------
  alpha Z        PSCENC =         3.36414726
  Ewald energy   TEWEN  =      -228.56352493
  -1/2 Hartree   DENC   =       -11.00108242
  -exchange  EXHF       =         0.00000000
  -V(xc)+E(xc)   XCENC  =       -18.37848594
  PAW double counting   =       176.06834157     -140.86953430
  entropy T*S    EENTRO =         0.00000000
  eigenvalues    EBANDS =         3.25075667
  atomic energy  EATOM  =       206.13251344
  ---------------------------------------------------
  free energy    TOTEN  =        -9.99686864 eV

  energy without entropy =       -9.99686864  energy(sigma->0) =       -9.99686864


--------------------------------------------------------------------------------------------------------




----------------------------------------- Iteration    1(   3)  ---------------------------------------


     EDDAV:  cpu time    0.76: real time    0.76
 BZINTS: Fermi energy:  5.787359;  8.000000 electrons
         Band energy:   2.752157;  BLOECHL correction: -0.000304
       DOS:  cpu time    0.00: real time    0.00
    --------------------------------------------
      LOOP:  cpu time    0.76: real time    0.77

 eigenvalue-minimisations  :  2384
 total energy-change (2. order) :-0.4985998E+00  (-0.4982804E+00)
 number of electron       8.0000000 magnetization       2.0000000
 augmentation part        8.0000000 magnetization       2.0000000

 Free energy of the ion-electron system (eV)
  ---------------------------------------------------
  alpha Z        PSCENC =         3.36414726
  Ewald energy   TEWEN  =      -228.56352493
  -1/2 Hartree   DENC   =       -11.00108242
  -exchange  EXHF       =         0.00000000
  -V(xc)+E(xc)   XCENC  =       -18.37848594
  PAW double counting   =       176.06834157     -140.86953430
  entropy T*S    EENTRO =         0.00000000
  eigenvalues    EBANDS =         2.75215689
  atomic energy  EATOM  =       206.13251344
  ---------------------------------------------------
  free energy    TOTEN  =       -10.49546842 eV

  energy without entropy =      -10.49546842  energy(sigma->0) =      -10.49546842


--------------------------------------------------------------------------------------------------------




----------------------------------------- Iteration    1(   4)  ---------------------------------------


     EDDAV:  cpu time    0.76: real time    0.77
 BZINTS: Fermi energy:  5.786791;  8.000000 electrons
         Band energy:   2.749250;  BLOECHL correction: -0.000300
       DOS:  cpu time    0.00: real time    0.00
    --------------------------------------------
      LOOP:  cpu time    0.77: real time    0.78

 eigenvalue-minimisations  :  2400
 total energy-change (2. order) :-0.2906721E-02  (-0.2909920E-02)
 number of electron       8.0000000 magnetization       2.0000000
 augmentation part        8.0000000 magnetization       2.0000000

 Free energy of the ion-electron system (eV)
  ---------------------------------------------------
  alpha Z        PSCENC =         3.36414726
  Ewald energy   TEWEN  =      -228.56352493
  -1/2 Hartree   DENC   =       -11.00108242
  -exchange  EXHF       =         0.00000000
  -V(xc)+E(xc)   XCENC  =       -18.37848594
  PAW double counting   =       176.06834157     -140.86953430
  entropy T*S    EENTRO =         0.00000000
  eigenvalues    EBANDS =         2.74925017
  atomic energy  EATOM  =       206.13251344
  ---------------------------------------------------
  free energy    TOTEN  =       -10.49837514 eV

  energy without entropy =      -10.49837514  energy(sigma->0) =      -10.49837514


--------------------------------------------------------------------------------------------------------




----------------------------------------- Iteration    1(   5)  ---------------------------------------


     EDDAV:  cpu time    0.77: real time    0.78
 BZINTS: Fermi energy:  5.786786;  8.000000 electrons
         Band energy:   2.749226;  BLOECHL correction: -0.000300
       DOS:  cpu time    0.00: real time    0.00
    CHARGE:  cpu time    0.05: real time    0.05
    MIXING:  cpu time    0.00: real time    0.00
    --------------------------------------------
      LOOP:  cpu time    0.83: real time    0.84

 eigenvalue-minimisations  :  2376
 total energy-change (2. order) :-0.2442803E-04  (-0.2445817E-04)
 number of electron       8.0000001 magnetization      -0.5618228
 augmentation part       -0.4720175 magnetization      -0.5562279

 Broyden mixing:
  rms(total) = 0.61054E+00    rms(broyden)= 0.61054E+00
  rms(prec ) = 0.10239E+01
  weight for this iteration     100.00

 Free energy of the ion-electron system (eV)
  ---------------------------------------------------
  alpha Z        PSCENC =         3.36414726
  Ewald energy   TEWEN  =      -228.56352493
  -1/2 Hartree   DENC   =       -11.00108242
  -exchange  EXHF       =         0.00000000
  -V(xc)+E(xc)   XCENC  =       -18.37848594
  PAW double counting   =       176.06834157     -140.86953430
  entropy T*S    EENTRO =         0.00000000
  eigenvalues    EBANDS =         2.74922574
  atomic energy  EATOM  =       206.13251344
  ---------------------------------------------------
  free energy    TOTEN  =       -10.49839957 eV

  energy without entropy =      -10.49839957  energy(sigma->0) =      -10.49839957


--------------------------------------------------------------------------------------------------------




----------------------------------------- Iteration    1(   6)  ---------------------------------------


    POTLOK:  cpu time    0.03: real time    0.03
    SETDIJ:  cpu time    0.25: real time    0.25
     EDDAV:  cpu time    0.78: real time    0.79
 BZINTS: Fermi energy:  5.707869;  8.000000 electrons
         Band energy:   3.979257;  BLOECHL correction:  0.000000
       DOS:  cpu time    0.00: real time    0.00
    CHARGE:  cpu time    0.05: real time    0.05
    MIXING:  cpu time    0.00: real time    0.00
    --------------------------------------------
      LOOP:  cpu time    1.11: real time    1.13

 eigenvalue-minimisations  :  2240
 total energy-change (2. order) :-0.3640149E+00  (-0.1079668E-01)
 number of electron       8.0000001 magnetization       0.4156195
 augmentation part       -0.4648415 magnetization       0.4146789

 Broyden mixing:
  rms(total) = 0.34309E+00    rms(broyden)= 0.34309E+00
  rms(prec ) = 0.59257E+00
  weight for this iteration     100.00

 eigenvalues of (default mixing * dielectric matrix)
  average eigenvalue GAMMA=   0.7745
  0.7745

 Free energy of the ion-electron system (eV)
  ---------------------------------------------------
  alpha Z        PSCENC =         3.36414726
  Ewald energy   TEWEN  =      -228.56352493
  -1/2 Hartree   DENC   =       -12.50905620
  -exchange  EXHF       =         0.00000000
  -V(xc)+E(xc)   XCENC  =       -18.34537593
  PAW double counting   =       377.25213793     -342.17251312
  entropy T*S    EENTRO =         0.00000000
  eigenvalues    EBANDS =         3.97925704
  atomic energy  EATOM  =       206.13251344
  ---------------------------------------------------
  free energy    TOTEN  =       -10.86241451 eV

  energy without entropy =      -10.86241451  energy(sigma->0) =      -10.86241451


--------------------------------------------------------------------------------------------------------




----------------------------------------- Iteration    1(   7)  ---------------------------------------


    POTLOK:  cpu time    0.03: real time    0.03
    SETDIJ:  cpu time    0.25: real time    0.25
     EDDAV:  cpu time    0.73: real time    0.74
 BZINTS: Fermi energy:  5.895865;  8.000000 electrons
         Band energy:   5.187050;  BLOECHL correction:  0.000000
       DOS:  cpu time    0.00: real time    0.00
    CHARGE:  cpu time    0.04: real time    0.05
    MIXING:  cpu time    0.00: real time    0.00
    --------------------------------------------
      LOOP:  cpu time    1.07: real time    1.08

 eigenvalue-minimisations  :  2184
 total energy-change (2. order) : 0.2906922E-01  (-0.5464448E-02)
 number of electron       8.0000001 magnetization       0.1591817
 augmentation part       -0.4609151 magnetization       0.1598314

 Broyden mixing:
  rms(total) = 0.23978E+00    rms(broyden)= 0.23978E+00
  rms(prec ) = 0.32122E+00
  weight for this iteration     100.00

 eigenvalues of (default mixing * dielectric matrix)
  average eigenvalue GAMMA=   0.9805
  1.3167  0.6444

 Free energy of the ion-electron system (eV)
  ---------------------------------------------------
  alpha Z        PSCENC =         3.36414726
  Ewald energy   TEWEN  =      -228.56352493
  -1/2 Hartree   DENC   =       -13.81711922
  -exchange  EXHF       =         0.00000000
  -V(xc)+E(xc)   XCENC  =       -18.13998533
  PAW double counting   =       622.79084199     -587.78726873
  entropy T*S    EENTRO =         0.00000000
  eigenvalues    EBANDS =         5.18705022
  atomic energy  EATOM  =       206.13251344
  ---------------------------------------------------
  free energy    TOTEN  =       -10.83334529 eV

  energy without entropy =      -10.83334529  energy(sigma->0) =      -10.83334529


--------------------------------------------------------------------------------------------------------




----------------------------------------- Iteration    1(   8)  ---------------------------------------


    POTLOK:  cpu time    0.03: real time    0.03
    SETDIJ:  cpu time    0.23: real time    0.24
     EDDAV:  cpu time    0.72: real time    0.72
 BZINTS: Fermi energy:  5.907614;  8.000000 electrons
         Band energy:   6.037097;  BLOECHL correction:  0.000000
       DOS:  cpu time    0.00: real time    0.00
    CHARGE:  cpu time    0.04: real time    0.04
    MIXING:  cpu time    0.00: real time    0.00
    --------------------------------------------
      LOOP:  cpu time    1.03: real time    1.04

 eigenvalue-minimisations  :  2288
 total energy-change (2. order) :-0.2826382E-02  (-0.1975009E-02)
 number of electron       8.0000001 magnetization      -0.0045315
 augmentation part       -0.4584119 magnetization      -0.0043615

 Broyden mixing:
  rms(total) = 0.67064E-01    rms(broyden)= 0.67064E-01
  rms(prec ) = 0.78521E-01
  weight for this iteration     100.00

 eigenvalues of (default mixing * dielectric matrix)
  average eigenvalue GAMMA=   1.2997
  2.5000  0.7804  0.6186

 Free energy of the ion-electron system (eV)
  ---------------------------------------------------
  alpha Z        PSCENC =         3.36414726
  Ewald energy   TEWEN  =      -228.56352493
  -1/2 Hartree   DENC   =       -14.75925683
  -exchange  EXHF       =         0.00000000
  -V(xc)+E(xc)   XCENC  =       -17.99657440
  PAW double counting   =       831.75667073     -796.80724365
  entropy T*S    EENTRO =         0.00000000
  eigenvalues    EBANDS =         6.03709670
  atomic energy  EATOM  =       206.13251344
  ---------------------------------------------------
  free energy    TOTEN  =       -10.83617168 eV

  energy without entropy =      -10.83617168  energy(sigma->0) =      -10.83617168


--------------------------------------------------------------------------------------------------------




----------------------------------------- Iteration    1(   9)  ---------------------------------------


    POTLOK:  cpu time    0.03: real time    0.03
    SETDIJ:  cpu time    0.22: real time    0.22
     EDDAV:  cpu time    0.71: real time    0.71
 BZINTS: Fermi energy:  5.907614;  8.000000 electrons
         Band energy:   6.162276;  BLOECHL correction:  0.000000
       DOS:  cpu time    0.00: real time    0.00
    CHARGE:  cpu time    0.04: real time    0.04
    MIXING:  cpu time    0.00: real time    0.00
    --------------------------------------------
      LOOP:  cpu time    1.00: real time    1.01

 eigenvalue-minimisations  :  2376
 total energy-change (2. order) :-0.4055600E-02  (-0.1665775E-03)
 number of electron       8.0000001 magnetization      -0.0022532
 augmentation part       -0.4581800 magnetization      -0.0021966

 Broyden mixing:
  rms(total) = 0.10889E-01    rms(broyden)= 0.10889E-01
  rms(prec ) = 0.23245E-01
  weight for this iteration     100.00

 eigenvalues of (default mixing * dielectric matrix)
  average eigenvalue GAMMA=   1.2234
  2.4838  1.0244  0.7694  0.6162

 Free energy of the ion-electron system (eV)
  ---------------------------------------------------
  alpha Z        PSCENC =         3.36414726
  Ewald energy   TEWEN  =      -228.56352493
  -1/2 Hartree   DENC   =       -14.91413218
  -exchange  EXHF       =         0.00000000
  -V(xc)+E(xc)   XCENC  =       -17.96933242
  PAW double counting   =       872.41384201     -837.46601635
  entropy T*S    EENTRO =         0.00000000
  eigenvalues    EBANDS =         6.16227590
  atomic energy  EATOM  =       206.13251344
  ---------------------------------------------------
  free energy    TOTEN  =       -10.84022728 eV

  energy without entropy =      -10.84022728  energy(sigma->0) =      -10.84022728


--------------------------------------------------------------------------------------------------------




----------------------------------------- Iteration    1(  10)  ---------------------------------------


    POTLOK:  cpu time    0.03: real time    0.03
    SETDIJ:  cpu time    0.25: real time    0.25
     EDDAV:  cpu time    0.70: real time    0.70
 BZINTS: Fermi energy:  5.907614;  8.000000 electrons
         Band energy:   6.135256;  BLOECHL correction:  0.000000
       DOS:  cpu time    0.00: real time    0.00
    CHARGE:  cpu time    0.04: real time    0.04
    MIXING:  cpu time    0.00: real time    0.00
    --------------------------------------------
      LOOP:  cpu time    1.02: real time    1.03

 eigenvalue-minimisations  :  2128
 total energy-change (2. order) :-0.4289183E-03  (-0.7899268E-04)
 number of electron       8.0000001 magnetization       0.0011715
 augmentation part       -0.4585773 magnetization       0.0011335

 Broyden mixing:
  rms(total) = 0.55303E-02    rms(broyden)= 0.55303E-02
  rms(prec ) = 0.77643E-02
  weight for this iteration     100.00

 eigenvalues of (default mixing * dielectric matrix)
  average eigenvalue GAMMA=   1.3076
  2.3238  2.1151  0.7828  0.6984  0.6178

 Free energy of the ion-electron system (eV)
  ---------------------------------------------------
  alpha Z        PSCENC =         3.36414726
  Ewald energy   TEWEN  =      -228.56352493
  -1/2 Hartree   DENC   =       -14.90503742
  -exchange  EXHF       =         0.00000000
  -V(xc)+E(xc)   XCENC  =       -17.96478400
  PAW double counting   =       877.95474323     -842.99397027
  entropy T*S    EENTRO =         0.00000000
  eigenvalues    EBANDS =         6.13525649
  atomic energy  EATOM  =       206.13251344
  ---------------------------------------------------
  free energy    TOTEN  =       -10.84065619 eV

  energy without entropy =      -10.84065619  energy(sigma->0) =      -10.84065619


--------------------------------------------------------------------------------------------------------




----------------------------------------- Iteration    1(  11)  ---------------------------------------


    POTLOK:  cpu time    0.05: real time    0.05
    SETDIJ:  cpu time    0.24: real time    0.24
     EDDAV:  cpu time    0.74: real time    0.74
 BZINTS: Fermi energy:  5.907614;  8.000000 electrons
         Band energy:   6.139331;  BLOECHL correction:  0.000000
       DOS:  cpu time    0.00: real time    0.00
    CHARGE:  cpu time    0.04: real time    0.04
    MIXING:  cpu time    0.00: real time    0.00
    --------------------------------------------
      LOOP:  cpu time    1.08: real time    1.18

 eigenvalue-minimisations  :  2320
 total energy-change (2. order) :-0.9549030E-04  (-0.1221757E-04)
 number of electron       8.0000001 magnetization       0.0007793
 augmentation part       -0.4586438 magnetization       0.0007725

 Broyden mixing:
  rms(total) = 0.35974E-02    rms(broyden)= 0.35974E-02
  rms(prec ) = 0.46765E-02
  weight for this iteration     100.00

 eigenvalues of (default mixing * dielectric matrix)
  average eigenvalue GAMMA=   1.3177
  2.2947  2.2947  1.2817  0.7730  0.6311  0.6311

 Free energy of the ion-electron system (eV)
  ---------------------------------------------------
  alpha Z        PSCENC =         3.36414726
  Ewald energy   TEWEN  =      -228.56352493
  -1/2 Hartree   DENC   =       -14.91243841
  -exchange  EXHF       =         0.00000000
  -V(xc)+E(xc)   XCENC  =       -17.96309297
  PAW double counting   =       876.52077424     -841.55846136
  entropy T*S    EENTRO =         0.00000000
  eigenvalues    EBANDS =         6.13933104
  atomic energy  EATOM  =       206.13251344
  ---------------------------------------------------
  free energy    TOTEN  =       -10.84075168 eV

  energy without entropy =      -10.84075168  energy(sigma->0) =      -10.84075168


--------------------------------------------------------------------------------------------------------




----------------------------------------- Iteration    1(  12)  ---------------------------------------


    POTLOK:  cpu time    0.03: real time    0.03
    SETDIJ:  cpu time    0.24: real time    0.24
     EDDAV:  cpu time    0.73: real time    0.73
 BZINTS: Fermi energy:  5.907614;  8.000000 electrons
         Band energy:   6.149021;  BLOECHL correction:  0.000000
       DOS:  cpu time    0.00: real time    0.00
    CHARGE:  cpu time    0.04: real time    0.04
    MIXING:  cpu time    0.00: real time    0.00
    --------------------------------------------
      LOOP:  cpu time    1.05: real time    1.07

 eigenvalue-minimisations  :  2328
 total energy-change (2. order) :-0.1318769E-04  (-0.2304839E-05)
 number of electron       8.0000001 magnetization      -0.0003012
 augmentation part       -0.4586208 magnetization      -0.0002819

 Broyden mixing:
  rms(total) = 0.15503E-02    rms(broyden)= 0.15503E-02
  rms(prec ) = 0.20799E-02
  weight for this iteration     100.00

 eigenvalues of (default mixing * dielectric matrix)
  average eigenvalue GAMMA=   1.3322
  2.5225  2.5225  1.4876  0.7776  0.7701  0.6227  0.6227

 Free energy of the ion-electron system (eV)
  ---------------------------------------------------
  alpha Z        PSCENC =         3.36414726
  Ewald energy   TEWEN  =      -228.56352493
  -1/2 Hartree   DENC   =       -14.92295105
  -exchange  EXHF       =         0.00000000
  -V(xc)+E(xc)   XCENC  =       -17.96193869
  PAW double counting   =       872.90447156     -837.94250394
  entropy T*S    EENTRO =         0.00000000
  eigenvalues    EBANDS =         6.14902148
  atomic energy  EATOM  =       206.13251344
  ---------------------------------------------------
  free energy    TOTEN  =       -10.84076487 eV

  energy without entropy =      -10.84076487  energy(sigma->0) =      -10.84076487


--------------------------------------------------------------------------------------------------------




----------------------------------------- Iteration    1(  13)  ---------------------------------------


    POTLOK:  cpu time    0.03: real time    0.03
    SETDIJ:  cpu time    0.24: real time    0.24
     EDDAV:  cpu time    0.59: real time    0.59
 BZINTS: Fermi energy:  5.907614;  8.000000 electrons
         Band energy:   6.153065;  BLOECHL correction:  0.000000
       DOS:  cpu time    0.00: real time    0.00
    --------------------------------------------
      LOOP:  cpu time    0.87: real time    0.88

 eigenvalue-minimisations  :  1640
 total energy-change (2. order) :-0.8219169E-05  (-0.9912946E-06)
 number of electron       8.0000001 magnetization      -0.0003012
 augmentation part       -0.4586208 magnetization      -0.0002819

 Free energy of the ion-electron system (eV)
  ---------------------------------------------------
  alpha Z        PSCENC =         3.36414726
  Ewald energy   TEWEN  =      -228.56352493
  -1/2 Hartree   DENC   =       -14.92762227
  -exchange  EXHF       =         0.00000000
  -V(xc)+E(xc)   XCENC  =       -17.96142333
  PAW double counting   =       870.78325402     -835.82118187
  entropy T*S    EENTRO =         0.00000000
  eigenvalues    EBANDS =         6.15306458
  atomic energy  EATOM  =       206.13251344
  ---------------------------------------------------
  free energy    TOTEN  =       -10.84077309 eV

  energy without entropy =      -10.84077309  energy(sigma->0) =      -10.84077309


--------------------------------------------------------------------------------------------------------




 average (electrostatic) potential at core
  the test charge radii are     0.9892
  (the norm of the test charge is              1.0000)
       1 -83.2428       2 -83.2428
 
 
 
 E-fermi :   5.9076     XC(G=0):  -9.4102     alpha+bet :-11.9845


 spin component 1

 k-point   1 :       0.0000    0.0000    0.0000
  band No.  band energies     occupation 
      1      -6.1292      1.00000
      2       5.8314      1.00000
      3       5.8314      1.00000
      4       5.8314      1.00000
      5       8.3965      0.00000
      6       8.3965      0.00000
      7       8.3965      0.00000
      8       9.2095      0.00000
      9      13.5508      0.00000
     10      13.5508      0.00000
     11      13.7902      0.00000
     12      17.0839      0.00000
     13      17.0839      0.00000
     14      17.0839      0.00000
     15      21.2362      0.00000
     16      28.9398      0.00000

 k-point   2 :       0.1250    0.0000    0.0000
  band No.  band energies     occupation 
      1      -5.9250      1.00000
      2       4.2343      1.00000
      3       5.5428      1.00000
      4       5.5428      1.00000
      5       8.3370      0.00000
      6       8.8208      0.00000
      7       8.8208      0.00000
      8      10.5518      0.00000
      9      13.0690      0.00000
     10      13.0690      0.00000
     11      14.5773      0.00000
     12      16.5244      0.00000
     13      18.2478      0.00000
     14      18.2478      0.00000
     15      22.4695      0.00000
     16      26.9157      0.00000

 k-point   3 :       0.2500    0.0000    0.0000
  band No.  band energies     occupation 
      1      -5.3291      1.00000
      2       1.9064      1.00000
      3       5.0726      1.00000
      4       5.0726      1.00000
      5       7.8640      0.00000
      6       9.3383      0.00000
      7       9.3383      0.00000
      8      12.7578      0.00000
      9      13.0260      0.00000
     10      13.0260      0.00000
     11      14.8272      0.00000
     12      17.6768      0.00000
     13      20.4766      0.00000
     14      20.4766      0.00000
     15      23.6944      0.00000
     16      23.6955      0.00000

 k-point   4 :       0.3750    0.0000    0.0000
  band No.  band energies     occupation 
      1      -4.4350      1.00000
      2      -0.1139      1.00000
      3       4.7459      1.00000
      4       4.7459      1.00000
      5       7.5004      0.00000
      6       9.2824      0.00000
      7       9.2824      0.00000
      8      13.7148      0.00000
      9      14.4135      0.00000
     10      14.4135      0.00000
     11      15.5266      0.00000
     12      19.5916      0.00000
     13      19.5916      0.00000
     14      19.9360      0.00000
     15      22.5105      0.00000
     16      24.3797      0.00000

 k-point   5 :       0.5000    0.0000    0.0000
  band No.  band energies     occupation 
      1      -3.7967      1.00000
      2      -1.1367      1.00000
      3       4.6342      1.00000
      4       4.6342      1.00000
      5       7.3725      0.00000
      6       9.1709      0.00000
      7       9.1709      0.00000
      8      13.5590      0.00000
      9      16.3807      0.00000
     10      16.3807      0.00000
     11      17.1772      0.00000
     12      17.1772      0.00000
     13      17.1904      0.00000
     14      18.8664      0.00000
     15      25.2237      0.00000
     16      25.8154      0.00000

 k-point   6 :       0.1250    0.1250    0.0000
  band No.  band energies     occupation 
      1      -5.8561      1.00000
      2       4.4999      1.00000
      3       5.0253      1.00000
      4       5.0253      1.00000
      5       7.8443      0.00000
      6       9.5366      0.00000
      7       9.5366      0.00000
      8      10.2382      0.00000
      9      12.3388      0.00000
     10      13.8535      0.00000
     11      14.8781      0.00000
     12      17.5565      0.00000
     13      17.5565      0.00000
     14      18.0430      0.00000
     15      23.0562      0.00000
     16      26.4448      0.00000

 k-point   7 :       0.2500    0.1250    0.0000
  band No.  band energies     occupation 
      1      -5.3873      1.00000
      2       2.6097      1.00000
      3       4.5139      1.00000
      4       4.5903      1.00000
      5       7.9802      0.00000
      6       9.5442      0.00000
      7      10.3007      0.00000
      8      10.5813      0.00000
      9      13.3427      0.00000
     10      14.0201      0.00000
     11      15.8615      0.00000
     12      17.4256      0.00000
     13      18.9737      0.00000
     14      20.2410      0.00000
     15      23.4323      0.00000
     16      23.9344      0.00000

 k-point   8 :       0.3750    0.1250    0.0000
  band No.  band energies     occupation 
      1      -4.5720      1.00000
      2       0.5488      1.00000
      3       3.9990      1.00000
      4       4.2461      1.00000
      5       8.0797      0.00000
      6       9.4756      0.00000
      7      10.2961      0.00000
      8      11.2987      0.00000
      9      15.1521      0.00000
     10      15.1864      0.00000
     11      15.7921      0.00000
     12      19.2364      0.00000
     13      19.3026      0.00000
     14      21.0340      0.00000
     15      22.5154      0.00000
     16      23.4941      0.00000

 k-point   9 :       0.5000    0.1250    0.0000
  band No.  band energies     occupation 
      1      -3.7101      1.00000
      2      -0.9151      1.00000
      3       3.5533      1.00000
      4       4.2707      1.00000
      5       8.0270      0.00000
      6       9.3471      0.00000
      7       9.9317      0.00000
      8      13.2028      0.00000
      9      14.8280      0.00000
     10      16.3142      0.00000
     11      17.3780      0.00000
     12      17.4871      0.00000
     13      18.3746      0.00000
     14      20.8884      0.00000
     15      24.1604      0.00000
     16      25.4923      0.00000

 k-point  10 :      -0.3750    0.1250    0.0000
  band No.  band energies     occupation 
      1      -3.9548      1.00000
      2      -0.5443      1.00000
      3       3.3715      1.00000
      4       4.5672      1.00000
      5       8.1944      0.00000
      6       9.4548      0.00000
      7       9.7000      0.00000
      8      13.7507      0.00000
      9      13.9273      0.00000
     10      15.0448      0.00000
     11      17.0225      0.00000
     12      18.2854      0.00000
     13      20.1025      0.00000
     14      20.5629      0.00000
     15      22.7199      0.00000
     16      24.4795      0.00000

 k-point  11 :      -0.2500    0.1250    0.0000
  band No.  band energies     occupation 
      1      -4.8784      1.00000
      2       1.2082      1.00000
      3       3.5221      1.00000
      4       5.0586      1.00000
      5       8.5540      0.00000
      6       9.5099      0.00000
      7       9.6878      0.00000
      8      12.1334      0.00000
      9      12.3031      0.00000
     10      15.6794      0.00000
     11      15.9114      0.00000
     12      18.2694      0.00000
     13      19.8222      0.00000
     14      21.2751      0.00000
     15      22.2260      0.00000
     16      23.8945      0.00000

 k-point  12 :      -0.1250    0.1250    0.0000
  band No.  band energies     occupation 
      1      -5.5886      1.00000
      2       3.1498      1.00000
      3       4.2038      1.00000
      4       5.5392      1.00000
      5       8.8786      0.00000
      6       8.9574      0.00000
      7       9.1913      0.00000
      8      11.3865      0.00000
      9      12.1722      0.00000
     10      13.8656      0.00000
     11      15.5953      0.00000
     12      17.0151      0.00000
     13      18.1998      0.00000
     14      20.3138      0.00000
     15      23.5524      0.00000
     16      23.9807      0.00000

 k-point  13 :       0.2500    0.2500    0.0000
  band No.  band energies     occupation 
      1      -5.0468      1.00000
      2       2.3174      1.00000
      3       3.9429      1.00000
      4       3.9429      1.00000
      5       6.9617      0.00000
      6       8.9641      0.00000
      7      11.5901      0.00000
      8      11.5901      0.00000
      9      13.9041      0.00000
     10      14.7599      0.00000
     11      17.2711      0.00000
     12      18.8465      0.00000
     13      18.8465      0.00000
     14      19.5575      0.00000
     15      23.2563      0.00000
     16      23.2563      0.00000

 k-point  14 :       0.3750    0.2500    0.0000
  band No.  band energies     occupation 
      1      -4.3365      1.00000
      2       0.8935      1.00000
      3       3.1622      1.00000
      4       3.6249      1.00000
      5       7.1820      0.00000
      6       8.7253      0.00000
      7      11.8319      0.00000
      8      12.1013      0.00000
      9      15.8109      0.00000
     10      16.0238      0.00000
     11      17.4988      0.00000
     12      19.0445      0.00000
     13      19.6023      0.00000
     14      20.6681      0.00000
     15      21.7277      0.00000
     16      22.9517      0.00000

 k-point  15 :       0.5000    0.2500    0.0000
  band No.  band energies     occupation 
      1      -3.4100      1.00000
      2      -0.5489      1.00000
      3       2.2986      1.00000
      4       3.6281      1.00000
      5       7.3508      0.00000
      6      10.2786      0.00000
      7      11.5805      0.00000
      8      11.7509      0.00000
      9      16.0474      0.00000
     10      16.3699      0.00000
     11      17.9922      0.00000
     12      18.5452      0.00000
     13      18.8764      0.00000
     14      22.6781      0.00000
     15      23.5642      0.00000
     16      24.4677      0.00000

 k-point  16 :      -0.3750    0.2500    0.0000
  band No.  band energies     occupation 
      1      -3.2056      1.00000
      2      -0.8075      1.00000
      3       1.8400      1.00000
      4       3.9466      1.00000
      5       7.6757      0.00000
      6      11.2967      0.00000
      7      11.3124      0.00000
      8      12.7934      0.00000
      9      13.8125      0.00000
     10      13.8546      0.00000
     11      18.4104      0.00000
     12      20.6605      0.00000
     13      20.9845      0.00000
     14      21.8572      0.00000
     15      22.2990      0.00000
     16      24.2287      0.00000

 k-point  17 :      -0.2500    0.2500    0.0000
  band No.  band energies     occupation 
      1      -4.0845      1.00000
      2       0.3538      1.00000
      3       2.0799      1.00000
      4       4.5050      1.00000
      5       8.2822      0.00000
      6      10.6232      0.00000
      7      10.9635      0.00000
      8      11.9837      0.00000
      9      12.2754      0.00000
     10      15.4723      0.00000
     11      18.4544      0.00000
     12      19.0330      0.00000
     13      19.2950      0.00000
     14      22.5110      0.00000
     15      22.8842      0.00000
     16      23.2962      0.00000

 k-point  18 :       0.3750    0.3750    0.0000
  band No.  band energies     occupation 
      1      -3.7337      1.00000
      2       0.0890      1.00000
      3       3.2266      1.00000
[...]
     14      19.2492      0.00000
     15      22.8395      0.00000
     16      22.8395      0.00000

 k-point  14 :       0.3750    0.2500    0.0000
  band No.  band energies     occupation 
      1      -4.4380      1.00000
      2       0.7030      1.00000
      3       3.0034      1.00000
      4       3.4562      1.00000
      5       6.9893      0.00000
      6       8.5215      0.00000
      7      11.5274      0.00000
      8      11.8253      0.00000
      9      15.5419      0.00000
     10      15.5904      0.00000
     11      17.1674      0.00000
     12      18.7050      0.00000
     13      19.2538      0.00000
     14      20.2947      0.00000
     15      21.3785      0.00000
     16      22.5720      0.00000

 k-point  15 :       0.5000    0.2500    0.0000
  band No.  band energies     occupation 
      1      -3.5330      1.00000
      2      -0.7055      1.00000
      3       2.1554      1.00000
      4       3.4582      1.00000
      5       7.1602      0.00000
      6      10.0505      0.00000
      7      11.2653      0.00000
      8      11.4951      0.00000
      9      15.7059      0.00000
     10      16.0791      0.00000
     11      17.6680      0.00000
     12      18.1413      0.00000
     13      18.4961      0.00000
     14      22.2755      0.00000
     15      23.1757      0.00000
     16      23.9866      0.00000

 k-point  16 :      -0.3750    0.2500    0.0000
  band No.  band energies     occupation 
      1      -3.3358      1.00000
      2      -0.9555      1.00000
      3       1.7079      1.00000
      4       3.7694      1.00000
      5       7.4743      0.00000
      6      11.0206      0.00000
      7      11.0607      0.00000
      8      12.5024      0.00000
      9      13.5123      0.00000
     10      13.5660      0.00000
     11      18.0986      0.00000
     12      20.3008      0.00000
     13      20.5153      0.00000
     14      21.4451      0.00000
     15      21.8985      0.00000
     16      23.8004      0.00000

 k-point  17 :      -0.2500    0.2500    0.0000
  band No.  band energies     occupation 
      1      -4.1929      1.00000
      2       0.1787      1.00000
      3       1.9486      1.00000
      4       4.3157      1.00000
      5       8.0562      0.00000
      6      10.3667      0.00000
      7      10.7024      0.00000
      8      11.6605      0.00000
      9      12.0719      0.00000
     10      15.1410      0.00000
     11      18.1145      0.00000
     12      18.6491      0.00000
     13      18.9642      0.00000
     14      22.1258      0.00000
     15      22.5031      0.00000
     16      22.8230      0.00000

 k-point  18 :       0.3750    0.3750    0.0000
  band No.  band energies     occupation 
      1      -3.8460      1.00000
      2      -0.0940      1.00000
      3       3.0651      1.00000
      4       3.0651      1.00000
      5       6.2688      0.00000
      6       7.1942      0.00000
      7      13.5560      0.00000
      8      13.5560      0.00000
      9      16.0009      0.00000
     10      16.1027      0.00000
     11      18.5032      0.00000
     12      18.5032      0.00000
     13      19.0835      0.00000
     14      20.6760      0.00000
     15      21.4655      0.00000
     16      22.3085      0.00000

 k-point  19 :       0.5000    0.3750    0.0000
  band No.  band energies     occupation 
      1      -2.9665      1.00000
      2      -1.1606      1.00000
      3       2.2595      1.00000
      4       2.9899      1.00000
      5       6.5493      0.00000
      6       7.6035      0.00000
      7      13.7929      0.00000
      8      13.8492      0.00000
      9      16.2379      0.00000
     10      16.3382      0.00000
     11      17.8347      0.00000
     12      18.2582      0.00000
     13      20.3621      0.00000
     14      20.4244      0.00000
     15      21.4192      0.00000
     16      24.1461      0.00000

 k-point  20 :      -0.3750    0.3750    0.0000
  band No.  band energies     occupation 
      1      -2.5432      1.00000
      2      -1.5460      1.00000
      3       1.4172      1.00000
      4       3.2422      1.00000
      5       6.8526      0.00000
      6       9.7308      0.00000
      7      12.9991      0.00000
      8      13.5355      0.00000
      9      13.7021      0.00000
     10      14.0988      0.00000
     11      20.1224      0.00000
     12      20.3847      0.00000
     13      20.9134      0.00000
     14      21.1503      0.00000
     15      21.3588      0.00000
     16      22.4646      0.00000

 k-point  21 :       0.5000    0.5000    0.0000
  band No.  band energies     occupation 
      1      -2.1284      1.00000
      2      -2.1284      1.00000
      3       2.8236      1.00000
      4       2.8236      1.00000
      5       6.3699      0.00000
      6       6.3699      0.00000
      7      15.5554      0.00000
      8      15.5554      0.00000
      9      16.5259      0.00000
     10      16.5259      0.00000
     11      18.0612      0.00000
     12      18.0612      0.00000
     13      18.4231      0.00000
     14      18.4231      0.00000
     15      24.2976      0.00000
     16      24.2976      0.00000

 k-point  22 :       0.3750    0.2500    0.1250
  band No.  band energies     occupation 
      1      -4.8922      1.00000
      2       1.3500      1.00000
      3       2.9658      1.00000
      4       4.2179      1.00000
      5       8.0616      0.00000
      6       9.4459      0.00000
      7       9.8214      0.00000
      8      11.0595      0.00000
      9      13.3319      0.00000
     10      15.7248      0.00000
     11      16.5851      0.00000
     12      17.6527      0.00000
     13      19.3616      0.00000
     14      20.5617      0.00000
     15      21.3237      0.00000
     16      23.6365      0.00000

 k-point  23 :       0.5000    0.2500    0.1250
  band No.  band energies     occupation 
      1      -4.0227      1.00000
      2      -0.1698      1.00000
      3       2.3618      1.00000
      4       3.7304      1.00000
      5       8.4829      0.00000
      6       9.1484      0.00000
      7      10.5966      0.00000
      8      11.4971      0.00000
      9      14.5500      0.00000
     10      15.2464      0.00000
     11      17.5226      0.00000
     12      18.3691      0.00000
     13      19.6924      0.00000
     14      20.6119      0.00000
     15      22.7166      0.00000
     16      23.6206      0.00000

 k-point  24 :      -0.3750    0.2500    0.1250
  band No.  band energies     occupation 
      1      -3.3884      1.00000
      2      -1.0894      1.00000
      3       2.2305      1.00000
      4       3.5073      1.00000
      5       8.6425      0.00000
      6       8.7648      0.00000
      7      11.4656      0.00000
      8      12.6852      0.00000
      9      12.9263      0.00000
     10      16.1272      0.00000
     11      17.1731      0.00000
     12      17.8948      0.00000
     13      20.9071      0.00000
     14      21.0190      0.00000
     15      23.5346      0.00000
     16      23.8775      0.00000

 k-point  25 :       0.5000    0.3750    0.1250
  band No.  band energies     occupation 
      1      -3.6526      1.00000
      2      -0.3093      1.00000
      3       2.3299      1.00000
      4       2.9219      1.00000
      5       7.5743      0.00000
      6       8.2773      0.00000
      7      11.3040      0.00000
      8      13.5073      0.00000
      9      15.6750      0.00000
     10      15.7294      0.00000
     11      18.3046      0.00000
     12      18.8077      0.00000
     13      19.6897      0.00000
     14      20.1414      0.00000
     15      22.1162      0.00000
     16      22.5156      0.00000

 k-point  26 :      -0.3750    0.3750    0.1250
  band No.  band energies     occupation 
      1      -2.7989      1.00000
      2      -1.2579      1.00000
      3       1.6497      1.00000
      4       2.7259      1.00000
      5       8.0137      0.00000
      6       9.8877      0.00000
      7      10.8315      0.00000
      8      12.9710      0.00000
      9      13.9271      0.00000
     10      16.5797      0.00000
     11      17.6919      0.00000
     12      19.8068      0.00000
     13      20.8064      0.00000
     14      21.4060      0.00000
     15      22.9833      0.00000
     16      23.8045      0.00000

 k-point  27 :      -0.2500    0.3750    0.1250
  band No.  band energies     occupation 
      1      -3.1426      1.00000
      2      -0.9001      1.00000
      3       1.4873      1.00000
      4       3.0926      1.00000
      5       8.4832      0.00000
      6      10.1333      0.00000
      7      10.7850      0.00000
      8      12.5822      0.00000
      9      13.3853      0.00000
     10      14.7659      0.00000
     11      19.5565      0.00000
     12      19.7609      0.00000
     13      20.0953      0.00000
     14      21.7023      0.00000
     15      21.9622      0.00000
     16      23.7579      0.00000

 k-point  28 :      -0.3750    0.5000    0.1250
  band No.  band energies     occupation 
      1      -2.0546      1.00000
      2      -2.0546      1.00000
      3       2.2785      1.00000
      4       2.2785      1.00000
      5       7.6045      0.00000
      6       7.6045      0.00000
      7      13.3709      0.00000
      8      13.3709      0.00000
      9      16.0730      0.00000
     10      16.0730      0.00000
     11      18.3407      0.00000
     12      18.3407      0.00000
     13      20.9971      0.00000
     14      20.9971      0.00000
     15      22.8494      0.00000
     16      22.8494      0.00000

 k-point  29 :      -0.2500    0.5000    0.2500
  band No.  band energies     occupation 
      1      -1.9737      1.00000
      2      -1.9737      1.00000
      3       1.8566      1.00000
      4       1.8566      1.00000
      5       9.8889      0.00000
      6       9.8889      0.00000
      7      10.5502      0.00000
      8      10.5502      0.00000
      9      16.0708      0.00000
     10      16.0708      0.00000
     11      18.4901      0.00000
     12      18.4901      0.00000
     13      21.9225      0.00000
     14      21.9225      0.00000
     15      24.0229      0.00000
     16      24.0229      0.00000


--------------------------------------------------------------------------------------------------------


 soft charge-density along one line, spin component           1
         0         1         2         3         4         5         6         7         8         9
 total charge-density along one line
 
 soft charge-density along one line, spin component           2
         0         1         2         3         4         5         6         7         8         9
 total charge-density along one line
 
 pseudopotential strength for first ion, spin component:           1
 18.436  25.722   0.000   0.000   0.000   0.000   0.000   0.000
 25.722  35.892   0.000   0.000   0.000   0.000   0.000   0.000
  0.000   0.000   4.180  -0.000  -0.000   7.790  -0.000  -0.000
  0.000   0.000  -0.000   4.180  -0.000  -0.000   7.790  -0.000
  0.000   0.000  -0.000  -0.000   4.180  -0.000  -0.000   7.790
  0.000   0.000   7.790  -0.000  -0.000  14.527  -0.000  -0.000
  0.000   0.000  -0.000   7.790  -0.000  -0.000  14.527  -0.000
  0.000   0.000  -0.000  -0.000   7.790  -0.000  -0.000  14.527
 pseudopotential strength for first ion, spin component:           2
 18.436  25.722   0.000   0.000   0.000   0.000   0.000   0.000
 25.722  35.892   0.000   0.000   0.000   0.000   0.000   0.000
  0.000   0.000   4.180  -0.000  -0.000   7.790  -0.000  -0.000
  0.000   0.000  -0.000   4.180  -0.000  -0.000   7.790  -0.000
  0.000   0.000  -0.000  -0.000   4.180  -0.000  -0.000   7.790
  0.000   0.000   7.790  -0.000  -0.000  14.527  -0.000  -0.000
  0.000   0.000  -0.000   7.790  -0.000  -0.000  14.527  -0.000
  0.000   0.000  -0.000  -0.000   7.790  -0.000  -0.000  14.527
 total augmentation occupancy for first ion, spin component:           1
  5.545  -2.073   0.000   0.000   0.000   0.000   0.000   0.000
 -2.073   0.890   0.000   0.000   0.000   0.000   0.000   0.000
  0.000   0.000   2.908   0.000   0.000  -0.650   0.000   0.000
  0.000   0.000   0.000   2.908   0.000   0.000  -0.650   0.000
  0.000   0.000   0.000   0.000   2.908  -0.000   0.000  -0.650
  0.000  -0.000  -0.650  -0.000  -0.000   0.154  -0.000   0.000
  0.000  -0.000   0.000  -0.650  -0.000   0.000   0.154  -0.000
  0.000   0.000   0.000   0.000  -0.650   0.000  -0.000   0.154
 total augmentation occupancy for first ion, spin component:           2
 -0.000   0.000   0.000   0.000   0.000   0.000   0.000   0.000
  0.000  -0.000   0.000   0.000   0.000   0.000   0.000   0.000
  0.000   0.000  -0.000   0.000   0.000   0.000   0.000   0.000
  0.000   0.000   0.000  -0.000   0.000   0.000   0.000   0.000
  0.000   0.000   0.000   0.000  -0.000   0.000   0.000   0.000
  0.000   0.000   0.000   0.000   0.000  -0.000   0.000   0.000
  0.000   0.000   0.000   0.000   0.000   0.000  -0.000   0.000
  0.000   0.000   0.000   0.000   0.000   0.000   0.000  -0.000


------------------------ aborting loop because EDIFF is reached ----------------------------------------


 


 total charge     
 
# of ion     s       p       d       tot
----------------------------------------
  1        0.750   0.929   0.000   1.679
  2        0.750   0.929   0.000   1.679
------------------------------------------------
tot        1.501   1.857   0.000   3.358
 


 magnetization (x)
 
# of ion     s       p       d       tot
----------------------------------------
  1        0.000   0.000   0.000   0.000
  2        0.000   0.000   0.000   0.000
------------------------------------------------
tot        0.000   0.000   0.000   0.000
 
    CHARGE:  cpu time    0.05: real time    0.05
    FORLOC:  cpu time    0.00: real time    0.00
    FORNL :  cpu time    0.03: real time    0.03
    STRESS:  cpu time    0.12: real time    0.12
    FORCOR:  cpu time    0.03: real time    0.03
    FORHAR:  cpu time    0.00: real time    0.00
    MIXING:  cpu time    0.00: real time    0.00

  FORCE on cell =-STRESS in cart. coord.  units (eV):
  Direction    XX          YY          ZZ          XY          YZ          ZX
  --------------------------------------------------------------------------------------
  Alpha Z     3.29352     3.29352     3.29352
  Ewald     -75.65097   -75.65097   -75.65097     0.00000     0.00000    -0.00000
  Hartree     5.06139     5.06139     5.06139     0.00000     0.00000     0.00000
  E(xc)     -25.24907   -25.24907   -25.24907    -0.00000    -0.00000    -0.00000
  Local     -29.51681   -29.51681   -29.51681     0.00001     0.00001     0.00001
  n-local    78.56985    79.71720    74.03083     2.22265    -1.18799     0.59641
  augment   -11.64219   -11.64219   -11.64219    -0.00001    -0.00001    -0.00001
  Kinetic    58.30844    55.99280    54.49947     3.52682    -0.77004     0.99474
  Fock        0.00000     0.00000     0.00000     0.00000     0.00000     0.00000
  -------------------------------------------------------------------------------------
  Total       0.00207     0.00207     0.00207    -0.00000    -0.00000     0.00000
  in kB       0.08104     0.08104     0.08104    -0.00000    -0.00000     0.00000
  external pressure =        0.08 kB  Pullay stress =        0.00 kB


 VOLUME and BASIS-vectors are now :
 -----------------------------------------------------------------------------
  energy-cutoff  :      500.00
  volume of cell :       40.88
      direct lattice vectors                 reciprocal lattice vectors
     0.000000000  2.734268641  2.734268641    -0.182864256  0.182864256  0.182864256
     2.734268641  0.000000000  2.734268641     0.182864256 -0.182864256  0.182864256
     2.734268641  2.734268641  0.000000000     0.182864256  0.182864256 -0.182864256

  length of vectors
     3.866839795  3.866839795  3.866839795     0.316730182  0.316730182  0.316730182


 FORCES acting on ions
    electron-ion (+dipol)            ewald-force                    non-local-force                 convergence-correction
 -----------------------------------------------------------------------------------------------
   0.924E-08 0.924E-08 0.557E-08   -.176E-14 0.488E-15 -.180E-14   -.971E-16 -.971E-16 -.658E-16   0.643E-08 0.643E-08 0.643E-08
   -.924E-08 -.924E-08 -.557E-08   0.164E-14 -.267E-15 0.150E-14   0.833E-16 0.111E-15 0.762E-16   -.643E-08 -.643E-08 -.643E-08
 -----------------------------------------------------------------------------------------------
   0.119E-12 0.378E-13 -.243E-13   -.122E-15 0.221E-15 -.302E-15   -.139E-16 0.139E-16 0.104E-16   -.169E-14 -.169E-15 -.825E-15
 
 
 POSITION                                       TOTAL-FORCE (eV/Angst)
 -----------------------------------------------------------------------------------
      0.00000      0.00000      0.00000        -0.000000     -0.000000      0.000000
      1.36713      1.36713      1.36713         0.000000      0.000000     -0.000000
 -----------------------------------------------------------------------------------
    total drift:                                0.000000      0.000000     -0.000000


--------------------------------------------------------------------------------------------------------



  FREE ENERGIE OF THE ION-ELECTRON SYSTEM (eV)
  ---------------------------------------------------
  free  energy   TOTEN  =       -10.84598331 eV

  energy  without entropy=      -10.84598331  energy(sigma->0) =      -10.84598331
 
 d Force = 0.0000000E+00[ 0.000E+00, 0.000E+00]  d Energy = 0.2360566E-02-0.236E-02
 d Force = 0.0000000E+00[ 0.000E+00, 0.000E+00]  d Ewald  = 0.1096012E+01-0.110E+01


--------------------------------------------------------------------------------------------------------


    POTLOK:  cpu time    0.27: real time    0.27


--------------------------------------------------------------------------------------------------------




--------------------------------------------------------------------------------------------------------


  
 reached required accuracy - stopping structural energy minimisation
 writing wavefunctions
     LOOP+:  cpu time    4.91: real time    5.05
    4ORBIT:  cpu time    0.00: real time    0.00
 


 total charge     
 
# of ion     s       p       d       tot
----------------------------------------
  1        0.750   0.929   0.000   1.679
  2        0.750   0.929   0.000   1.679
------------------------------------------------
tot        1.501   1.857   0.000   3.358
 


 magnetization (x)
 
# of ion     s       p       d       tot
----------------------------------------
  1        0.000   0.000   0.000   0.000
  2        0.000   0.000   0.000   0.000
------------------------------------------------
tot        0.000   0.000   0.000   0.000
 
 BZINTS: Fermi energy:  5.719619;  8.000000 electrons
         Band energy:   4.938916;  BLOECHL correction:  0.000000

 total amount of memory used by VASP on root node    38197. kBytes
========================================================================

   base      :      30000. kBytes
   nonl-proj :       1963. kBytes
   fftplans  :        858. kBytes
   grid      :       3405. kBytes
   one-center:         12. kBytes
   wavefun   :       1959. kBytes
 
  
  
 General timing and accounting informations for this job:
 ========================================================
  
                  Total CPU time used (sec):       25.588
                            User time (sec):       25.121
                          System time (sec):        0.468
                         Elapsed time (sec):       26.683
  
                   Maximum memory used (kb):       38860.
                   Average memory used (kb):           0.
  
                          Minor page faults:        24839
                          Major page faults:            1
                 Voluntary context switches:          801
