<?xml version="1.0" encoding="ISO-8859-1"?>
<modeling>
 <generator>
  <i name="program" type="string">vasp </i>
  <i name="version" type="string">5.3.3  </i>
  <i name="subversion" type="string">18Dez12 (build Jun 24 2015 15:58:02) complex                          parallel </i>
  <i name="platform" type="string">LinuxIFC </i>
  <i name="date" type="string">2023 04 23 </i>
  <i name="time" type="string">21:20:17 </i>
 </generator>
 <incar>
  <i type="string" name="SYSTEM"> Silicon Diamond (band)</i>
  <i type="int" name="ISTART">     0</i>
  <i type="string" name="PREC">accurate</i>
  <i type="string" name="ALGO"> Fast ! alorithm for electron optimizati</i>
  <i type="int" name="NSIM">     1</i>
  <i type="int" name="ISPIN">     2</i>
  <i type="int" name="ICHARG">    11</i>
  <i type="int" name="NELM">   100</i>
  <i name="EDIFF">      0.00001000</i>
  <i name="EDIFFG">     -0.01000000</i>
  <i type="int" name="NSW">     0</i>
  <i type="int" name="ISIF">     3</i>
  <i name="ENCUT">    500.00000000</i>
  <i type="logical" name="LREAL"> F  </i>
  <i type="logical" name="LPLANE"> F  </i>
  <i type="int" name="ISMEAR">     0</i>
  <i name="SIGMA">      0.05000000</i>
  <i type="logical" name="LWAVE"> T  </i>
  <i type="logical" name="LCHARG"> T  </i>
  <i type="logical" name="LVTOT"> T  </i>
  <i type="logical" name="LORBIT"> F  </i>
  <i type="logical" name="LELF"> T  </i>
  <i type="logical" name="LASPH"> T  </i>
  <i type="int" name="NELM">   100</i>
  <i type="logical" name="LASPH"> T  </i>
 </incar>
 <kpoints>
  <generation param="listgenerated">
   <i name="divisions" type="int">      50 </i>
   <v>       0.00000000       0.00000000       0.00000000 </v>
   <v>       0.50000000       0.00000000       0.50000000 </v>
   <v>       0.37500000       0.37500000       0.75000000 </v>
   <v>       0.00000000       0.00000000       0.00000000 </v>
   <v>       0.50000000       0.50000000       0.50000000 </v>
   <v>       0.50000000       0.25000000       0.75000000 </v>
   <v>       0.50000000       0.00000000       0.50000000 </v>
  </generation>
  <varray name="kpointlist" >
   <v>       0.00000000       0.00000000       0.00000000 </v>
   <v>       0.01020408       0.00000000       0.01020408 </v>
   <v>       0.02040816       0.00000000       0.02040816 </v>
   <v>       0.03061224       0.00000000       0.03061224 </v>
   <v>       0.04081633       0.00000000       0.04081633 </v>
   <v>       0.05102041       0.00000000       0.05102041 </v>
   <v>       0.06122449       0.00000000       0.06122449 </v>
   <v>       0.07142857       0.00000000       0.07142857 </v>
   <v>       0.08163265       0.00000000       0.08163265 </v>
   <v>       0.09183673       0.00000000       0.09183673 </v>
   <v>       0.10204082       0.00000000       0.10204082 </v>
   <v>       0.11224490       0.00000000       0.11224490 </v>
   <v>       0.12244898       0.00000000       0.12244898 </v>
   <v>       0.13265306       0.00000000       0.13265306 </v>
   <v>       0.14285714       0.00000000       0.14285714 </v>
   <v>       0.15306122       0.00000000       0.15306122 </v>
   <v>       0.16326531       0.00000000       0.16326531 </v>
   <v>       0.17346939       0.00000000       0.17346939 </v>
   <v>       0.18367347       0.00000000       0.18367347 </v>
   <v>       0.19387755       0.00000000       0.19387755 </v>
   <v>       0.20408163       0.00000000       0.20408163 </v>
   <v>       0.21428571       0.00000000       0.21428571 </v>
   <v>       0.22448980       0.00000000       0.22448980 </v>
   <v>       0.23469388       0.00000000       0.23469388 </v>
   <v>       0.24489796       0.00000000       0.24489796 </v>
   <v>       0.25510204       0.00000000       0.25510204 </v>
   <v>       0.26530612       0.00000000       0.26530612 </v>
   <v>       0.27551020       0.00000000       0.27551020 </v>
   <v>       0.28571429       0.00000000       0.28571429 </v>
   <v>       0.29591837       0.00000000       0.29591837 </v>
   <v>       0.30612245       0.00000000       0.30612245 </v>
   <v>       0.31632653       0.00000000       0.31632653 </v>
   <v>       0.32653061       0.00000000       0.32653061 </v>
   <v>       0.33673469       0.00000000       0.33673469 </v>
   <v>       0.34693878       0.00000000       0.34693878 </v>
   <v>       0.35714286       0.00000000       0.35714286 </v>
   <v>       0.36734694       0.00000000       0.36734694 </v>
   <v>       0.37755102       0.00000000       0.37755102 </v>
   <v>       0.38775510       0.00000000       0.38775510 </v>
   <v>       0.39795918       0.00000000       0.39795918 </v>
   <v>       0.40816327       0.00000000       0.40816327 </v>
   <v>       0.41836735       0.00000000       0.41836735 </v>
   <v>       0.42857143       0.00000000       0.42857143 </v>
   <v>       0.43877551       0.00000000       0.43877551 </v>
   <v>       0.44897959       0.00000000       0.44897959 </v>
   <v>       0.45918367       0.00000000       0.45918367 </v>
   <v>       0.46938776       0.00000000       0.46938776 </v>
   <v>       0.47959184       0.00000000       0.47959184 </v>
   <v>       0.48979592       0.00000000       0.48979592 </v>
   <v>       0.50000000       0.00000000       0.50000000 </v>
   <v>       0.50000000       0.00000000       0.50000000 </v>
   <v>       0.50255102       0.00510204       0.50255102 </v>
   <v>       0.50510204       0.01020408       0.50510204 </v>
   <v>       0.50765306       0.01530612       0.50765306 </v>
   <v>       0.51020408       0.02040816       0.51020408 </v>
   <v>       0.51275510       0.02551020       0.51275510 </v>
   <v>       0.51530612       0.03061224       0.51530612 </v>
   <v>       0.51785714       0.03571429       0.51785714 </v>
   <v>       0.52040816       0.04081633       0.52040816 </v>
   <v>       0.52295918       0.04591837       0.52295918 </v>
   <v>       0.52551020       0.05102041       0.52551020 </v>
   <v>       0.52806122       0.05612245       0.52806122 </v>
   <v>       0.53061224       0.06122449       0.53061224 </v>
   <v>       0.53316327       0.06632653       0.53316327 </v>
   <v>       0.53571429       0.07142857       0.53571429 </v>
   <v>       0.53826531       0.07653061       0.53826531 </v>
   <v>       0.54081633       0.08163265       0.54081633 </v>
   <v>       0.54336735       0.08673469       0.54336735 </v>
   <v>       0.54591837       0.09183673       0.54591837 </v>
   <v>       0.54846939       0.09693878       0.54846939 </v>
   <v>       0.55102041       0.10204082       0.55102041 </v>
   <v>       0.55357143       0.10714286       0.55357143 </v>
   <v>       0.55612245       0.11224490       0.55612245 </v>
   <v>       0.55867347       0.11734694       0.55867347 </v>
   <v>       0.56122449       0.12244898       0.56122449 </v>
   <v>       0.56377551       0.12755102       0.56377551 </v>
   <v>       0.56632653       0.13265306       0.56632653 </v>
   <v>       0.56887755       0.13775510       0.56887755 </v>
   <v>       0.57142857       0.14285714       0.57142857 </v>
   <v>       0.57397959       0.14795918       0.57397959 </v>
   <v>       0.57653061       0.15306122       0.57653061 </v>
   <v>       0.57908163       0.15816327       0.57908163 </v>
   <v>       0.58163265       0.16326531       0.58163265 </v>
   <v>       0.58418367       0.16836735       0.58418367 </v>
   <v>       0.58673469       0.17346939       0.58673469 </v>
   <v>       0.58928571       0.17857143       0.58928571 </v>
   <v>       0.59183673       0.18367347       0.59183673 </v>
   <v>       0.59438776       0.18877551       0.59438776 </v>
   <v>       0.59693878       0.19387755       0.59693878 </v>
   <v>       0.59948980       0.19897959       0.59948980 </v>
   <v>       0.60204082       0.20408163       0.60204082 </v>
   <v>       0.60459184       0.20918367       0.60459184 </v>
   <v>       0.60714286       0.21428571       0.60714286 </v>
   <v>       0.60969388       0.21938776       0.60969388 </v>
   <v>       0.61224490       0.22448980       0.61224490 </v>
   <v>       0.61479592       0.22959184       0.61479592 </v>
   <v>       0.61734694       0.23469388       0.61734694 </v>
   <v>       0.61989796       0.23979592       0.61989796 </v>
   <v>       0.62244898       0.24489796       0.62244898 </v>
   <v>       0.62500000       0.25000000       0.62500000 </v>
   <v>       0.37500000       0.37500000       0.75000000 </v>
   <v>       0.36734694       0.36734694       0.73469388 </v>
   <v>       0.35969388       0.35969388       0.71938776 </v>
   <v>       0.35204082       0.35204082       0.70408163 </v>
   <v>       0.34438776       0.34438776       0.68877551 </v>
   <v>       0.33673469       0.33673469       0.67346939 </v>
   <v>       0.32908163       0.32908163       0.65816327 </v>
   <v>       0.32142857       0.32142857       0.64285714 </v>
   <v>       0.31377551       0.31377551       0.62755102 </v>
   <v>       0.30612245       0.30612245       0.61224490 </v>
   <v>       0.29846939       0.29846939       0.59693878 </v>
   <v>       0.29081633       0.29081633       0.58163265 </v>
   <v>       0.28316327       0.28316327       0.56632653 </v>
   <v>       0.27551020       0.27551020       0.55102041 </v>
   <v>       0.26785714       0.26785714       0.53571429 </v>
   <v>       0.26020408       0.26020408       0.52040816 </v>
   <v>       0.25255102       0.25255102       0.50510204 </v>
   <v>       0.24489796       0.24489796       0.48979592 </v>
   <v>       0.23724490       0.23724490       0.47448980 </v>
   <v>       0.22959184       0.22959184       0.45918367 </v>
   <v>       0.22193878       0.22193878       0.44387755 </v>
   <v>       0.21428571       0.21428571       0.42857143 </v>
   <v>       0.20663265       0.20663265       0.41326531 </v>
   <v>       0.19897959       0.19897959       0.39795918 </v>
   <v>       0.19132653       0.19132653       0.38265306 </v>
   <v>       0.18367347       0.18367347       0.36734694 </v>
   <v>       0.17602041       0.17602041       0.35204082 </v>
   <v>       0.16836735       0.16836735       0.33673469 </v>
   <v>       0.16071429       0.16071429       0.32142857 </v>
   <v>       0.15306122       0.15306122       0.30612245 </v>
   <v>       0.14540816       0.14540816       0.29081633 </v>
   <v>       0.13775510       0.13775510       0.27551020 </v>
   <v>       0.13010204       0.13010204       0.26020408 </v>
   <v>       0.12244898       0.12244898       0.24489796 </v>
   <v>       0.11479592       0.11479592       0.22959184 </v>
   <v>       0.10714286       0.10714286       0.21428571 </v>
   <v>       0.09948980       0.09948980       0.19897959 </v>
   <v>       0.09183673       0.09183673       0.18367347 </v>
   <v>       0.08418367       0.08418367       0.16836735 </v>
   <v>       0.07653061       0.07653061       0.15306122 </v>
   <v>       0.06887755       0.06887755       0.13775510 </v>
   <v>       0.06122449       0.06122449       0.12244898 </v>
   <v>       0.05357143       0.05357143       0.10714286 </v>
   <v>       0.04591837       0.04591837       0.09183673 </v>
   <v>       0.03826531       0.03826531       0.07653061 </v>
   <v>       0.03061224       0.03061224       0.06122449 </v>
   <v>       0.02295918       0.02295918       0.04591837 </v>
   <v>       0.01530612       0.01530612       0.03061224 </v>
   <v>       0.00765306       0.00765306       0.01530612 </v>
   <v>       0.00000000       0.00000000       0.00000000 </v>
   <v>       0.00000000       0.00000000       0.00000000 </v>
   <v>       0.01020408       0.01020408       0.01020408 </v>
   <v>       0.02040816       0.02040816       0.02040816 </v>
   <v>       0.03061224       0.03061224       0.03061224 </v>
   <v>       0.04081633       0.04081633       0.04081633 </v>
   <v>       0.05102041       0.05102041       0.05102041 </v>
   <v>       0.06122449       0.06122449       0.06122449 </v>
   <v>       0.07142857       0.07142857       0.07142857 </v>
   <v>       0.08163265       0.08163265       0.08163265 </v>
   <v>       0.09183673       0.09183673       0.09183673 </v>
   <v>       0.10204082       0.10204082       0.10204082 </v>
   <v>       0.11224490       0.11224490       0.11224490 </v>
   <v>       0.12244898       0.12244898       0.12244898 </v>
   <v>       0.13265306       0.13265306       0.13265306 </v>
   <v>       0.14285714       0.14285714       0.14285714 </v>
   <v>       0.15306122       0.15306122       0.15306122 </v>
   <v>       0.16326531       0.16326531       0.16326531 </v>
   <v>       0.17346939       0.17346939       0.17346939 </v>
   <v>       0.18367347       0.18367347       0.18367347 </v>
   <v>       0.19387755       0.19387755       0.19387755 </v>
   <v>       0.20408163       0.20408163       0.20408163 </v>
   <v>       0.21428571       0.21428571       0.21428571 </v>
   <v>       0.22448980       0.22448980       0.22448980 </v>
   <v>       0.23469388       0.23469388       0.23469388 </v>
   <v>       0.24489796       0.24489796       0.24489796 </v>
   <v>       0.25510204       0.25510204       0.25510204 </v>
   <v>       0.26530612       0.26530612       0.26530612 </v>
   <v>       0.27551020       0.27551020       0.27551020 </v>
   <v>       0.28571429       0.28571429       0.28571429 </v>
   <v>       0.29591837       0.29591837       0.29591837 </v>
   <v>       0.30612245       0.30612245       0.30612245 </v>
   <v>       0.31632653       0.31632653       0.31632653 </v>
   <v>       0.32653061       0.32653061       0.32653061 </v>
   <v>       0.33673469       0.33673469       0.33673469 </v>
   <v>       0.34693878       0.34693878       0.34693878 </v>
   <v>       0.35714286       0.35714286       0.35714286 </v>
   <v>       0.36734694       0.36734694       0.36734694 </v>
   <v>       0.37755102       0.37755102       0.37755102 </v>
   <v>       0.38775510       0.38775510       0.38775510 </v>
   <v>       0.39795918       0.39795918       0.39795918 </v>
   <v>       0.40816327       0.40816327       0.40816327 </v>
   <v>       0.41836735       0.41836735       0.41836735 </v>
   <v>       0.42857143       0.42857143       0.42857143 </v>
   <v>       0.43877551       0.43877551       0.43877551 </v>
   <v>       0.44897959       0.44897959       0.44897959 </v>
   <v>       0.45918367       0.45918367       0.45918367 </v>
   <v>       0.46938776       0.46938776       0.46938776 </v>
   <v>       0.47959184       0.47959184       0.47959184 </v>
   <v>       0.48979592       0.48979592       0.48979592 </v>
   <v>       0.50000000       0.50000000       0.50000000 </v>
   <v>       0.50000000       0.50000000       0.50000000 </v>
   <v>       0.50000000       0.49489796       0.50510204 </v>
   <v>       0.50000000       0.48979592       0.51020408 </v>
   <v>       0.50000000       0.48469388       0.51530612 </v>
   <v>       0.50000000       0.47959184       0.52040816 </v>
   <v>       0.50000000       0.47448980       0.52551020 </v>
   <v>       0.50000000       0.46938776       0.53061224 </v>
   <v>       0.50000000       0.46428571       0.53571429 </v>
   <v>       0.50000000       0.45918367       0.54081633 </v>
   <v>       0.50000000       0.45408163       0.54591837 </v>
   <v>       0.50000000       0.44897959       0.55102041 </v>
   <v>       0.50000000       0.44387755       0.55612245 </v>
   <v>       0.50000000       0.43877551       0.56122449 </v>
   <v>       0.50000000       0.43367347       0.56632653 </v>
   <v>       0.50000000       0.42857143       0.57142857 </v>
   <v>       0.50000000       0.42346939       0.57653061 </v>
   <v>       0.50000000       0.41836735       0.58163265 </v>
   <v>       0.50000000       0.41326531       0.58673469 </v>
   <v>       0.50000000       0.40816327       0.59183673 </v>
   <v>       0.50000000       0.40306122       0.59693878 </v>
   <v>       0.50000000       0.39795918       0.60204082 </v>
   <v>       0.50000000       0.39285714       0.60714286 </v>
   <v>       0.50000000       0.38775510       0.61224490 </v>
   <v>       0.50000000       0.38265306       0.61734694 </v>
   <v>       0.50000000       0.37755102       0.62244898 </v>
   <v>       0.50000000       0.37244898       0.62755102 </v>
   <v>       0.50000000       0.36734694       0.63265306 </v>
   <v>       0.50000000       0.36224490       0.63775510 </v>
   <v>       0.50000000       0.35714286       0.64285714 </v>
   <v>       0.50000000       0.35204082       0.64795918 </v>
   <v>       0.50000000       0.34693878       0.65306122 </v>
   <v>       0.50000000       0.34183673       0.65816327 </v>
   <v>       0.50000000       0.33673469       0.66326531 </v>
   <v>       0.50000000       0.33163265       0.66836735 </v>
   <v>       0.50000000       0.32653061       0.67346939 </v>
   <v>       0.50000000       0.32142857       0.67857143 </v>
   <v>       0.50000000       0.31632653       0.68367347 </v>
   <v>       0.50000000       0.31122449       0.68877551 </v>
   <v>       0.50000000       0.30612245       0.69387755 </v>
   <v>       0.50000000       0.30102041       0.69897959 </v>
   <v>       0.50000000       0.29591837       0.70408163 </v>
   <v>       0.50000000       0.29081633       0.70918367 </v>
   <v>       0.50000000       0.28571429       0.71428571 </v>
   <v>       0.50000000       0.28061224       0.71938776 </v>
   <v>       0.50000000       0.27551020       0.72448980 </v>
   <v>       0.50000000       0.27040816       0.72959184 </v>
   <v>       0.50000000       0.26530612       0.73469388 </v>
   <v>       0.50000000       0.26020408       0.73979592 </v>
   <v>       0.50000000       0.25510204       0.74489796 </v>
   <v>       0.50000000       0.25000000       0.75000000 </v>
   <v>       0.50000000       0.25000000       0.75000000 </v>
   <v>       0.50000000       0.24489796       0.74489796 </v>
   <v>       0.50000000       0.23979592       0.73979592 </v>
   <v>       0.50000000       0.23469388       0.73469388 </v>
   <v>       0.50000000       0.22959184       0.72959184 </v>
   <v>       0.50000000       0.22448980       0.72448980 </v>
   <v>       0.50000000       0.21938776       0.71938776 </v>
   <v>       0.50000000       0.21428571       0.71428571 </v>
   <v>       0.50000000       0.20918367       0.70918367 </v>
   <v>       0.50000000       0.20408163       0.70408163 </v>
   <v>       0.50000000       0.19897959       0.69897959 </v>
   <v>       0.50000000       0.19387755       0.69387755 </v>
   <v>       0.50000000       0.18877551       0.68877551 </v>
   <v>       0.50000000       0.18367347       0.68367347 </v>
   <v>       0.50000000       0.17857143       0.67857143 </v>
   <v>       0.50000000       0.17346939       0.67346939 </v>
   <v>       0.50000000       0.16836735       0.66836735 </v>
   <v>       0.50000000       0.16326531       0.66326531 </v>
   <v>       0.50000000       0.15816327       0.65816327 </v>
   <v>       0.50000000       0.15306122       0.65306122 </v>
   <v>       0.50000000       0.14795918       0.64795918 </v>
   <v>       0.50000000       0.14285714       0.64285714 </v>
   <v>       0.50000000       0.13775510       0.63775510 </v>
   <v>       0.50000000       0.13265306       0.63265306 </v>
   <v>       0.50000000       0.12755102       0.62755102 </v>
   <v>       0.50000000       0.12244898       0.62244898 </v>
   <v>       0.50000000       0.11734694       0.61734694 </v>
   <v>       0.50000000       0.11224490       0.61224490 </v>
   <v>       0.50000000       0.10714286       0.60714286 </v>
   <v>       0.50000000       0.10204082       0.60204082 </v>
   <v>       0.50000000       0.09693878       0.59693878 </v>
   <v>       0.50000000       0.09183673       0.59183673 </v>
   <v>       0.50000000       0.08673469       0.58673469 </v>
   <v>       0.50000000       0.08163265       0.58163265 </v>
   <v>       0.50000000       0.07653061       0.57653061 </v>
   <v>       0.50000000       0.07142857       0.57142857 </v>
   <v>       0.50000000       0.06632653       0.56632653 </v>
   <v>       0.50000000       0.06122449       0.56122449 </v>
   <v>       0.50000000       0.05612245       0.55612245 </v>
   <v>       0.50000000       0.05102041       0.55102041 </v>
   <v>       0.50000000       0.04591837       0.54591837 </v>
   <v>       0.50000000       0.04081633       0.54081633 </v>
   <v>       0.50000000       0.03571429       0.53571429 </v>
   <v>       0.50000000       0.03061224       0.53061224 </v>
   <v>       0.50000000       0.02551020       0.52551020 </v>
   <v>       0.50000000       0.02040816       0.52040816 </v>
   <v>       0.50000000       0.01530612       0.51530612 </v>
   <v>       0.50000000       0.01020408       0.51020408 </v>
   <v>       0.50000000       0.00510204       0.50510204 </v>
   <v>       0.50000000       0.00000000       0.50000000 </v>
  </varray>
  <varray name="weights" >
   <v>       0.00333333 </v>
   <v>       0.00333333 </v>
   <v>       0.00333333 </v>
   <v>       0.00333333 </v>
   <v>       0.00333333 </v>
   <v>       0.00333333 </v>
   <v>       0.00333333 </v>
   <v>       0.00333333 </v>
   <v>       0.00333333 </v>
   <v>       0.00333333 </v>
   <v>       0.00333333 </v>
   <v>       0.00333333 </v>
   <v>       0.00333333 </v>
   <v>       0.00333333 </v>
   <v>       0.00333333 </v>
   <v>       0.00333333 </v>
   <v>       0.00333333 </v>
   <v>       0.00333333 </v>
   <v>       0.00333333 </v>
   <v>       0.00333333 </v>
   <v>       0.00333333 </v>
   <v>       0.00333333 </v>
   <v>       0.00333333 </v>
   <v>       0.00333333 </v>
   <v>       0.00333333 </v>
   <v>       0.00333333 </v>
   <v>       0.00333333 </v>
   <v>       0.00333333 </v>
   <v>       0.00333333 </v>
   <v>       0.00333333 </v>
   <v>       0.00333333 </v>
   <v>       0.00333333 </v>
   <v>       0.00333333 </v>
   <v>       0.00333333 </v>
   <v>       0.00333333 </v>
   <v>       0.00333333 </v>
   <v>       0.00333333 </v>
   <v>       0.00333333 </v>
   <v>       0.00333333 </v>
   <v>       0.00333333 </v>
   <v>       0.00333333 </v>
   <v>       0.00333333 </v>
   <v>       0.00333333 </v>
   <v>       0.00333333 </v>
   <v>       0.00333333 </v>
   <v>       0.00333333 </v>
   <v>       0.00333333 </v>
   <v>       0.00333333 </v>
   <v>       0.00333333 </v>
   <v>       0.00333333 </v>
   <v>       0.00333333 </v>
   <v>       0.00333333 </v>
   <v>       0.00333333 </v>
   <v>       0.00333333 </v>
   <v>       0.00333333 </v>
   <v>       0.00333333 </v>
   <v>       0.00333333 </v>
   <v>       0.00333333 </v>
   <v>       0.00333333 </v>
   <v>       0.00333333 </v>
   <v>       0.00333333 </v>
   <v>       0.00333333 </v>
   <v>       0.00333333 </v>
   <v>       0.00333333 </v>
   <v>       0.00333333 </v>
   <v>       0.00333333 </v>
   <v>       0.00333333 </v>
   <v>       0.00333333 </v>
   <v>       0.00333333 </v>
   <v>       0.00333333 </v>
   <v>       0.00333333 </v>
   <v>       0.00333333 </v>
   <v>       0.00333333 </v>
   <v>       0.00333333 </v>
   <v>       0.00333333 </v>
   <v>       0.00333333 </v>
   <v>       0.00333333 </v>
   <v>       0.00333333 </v>
   <v>       0.00333333 </v>
   <v>       0.00333333 </v>
   <v>       0.00333333 </v>
   <v>       0.00333333 </v>
   <v>       0.00333333 </v>
   <v>       0.00333333 </v>
   <v>       0.00333333 </v>
   <v>       0.00333333 </v>
   <v>       0.00333333 </v>
   <v>       0.00333333 </v>
   <v>       0.00333333 </v>
   <v>       0.00333333 </v>
   <v>       0.00333333 </v>
   <v>       0.00333333 </v>
   <v>       0.00333333 </v>
   <v>       0.00333333 </v>
   <v>       0.00333333 </v>
   <v>       0.00333333 </v>
   <v>       0.00333333 </v>
   <v>       0.00333333 </v>
   <v>       0.00333333 </v>
   <v>       0.00333333 </v>
   <v>       0.00333333 </v>
   <v>       0.00333333 </v>
   <v>       0.00333333 </v>
   <v>       0.00333333 </v>
   <v>       0.00333333 </v>
   <v>       0.00333333 </v>
   <v>       0.00333333 </v>
   <v>       0.00333333 </v>
   <v>       0.00333333 </v>
   <v>       0.00333333 </v>
   <v>       0.00333333 </v>
   <v>       0.00333333 </v>
   <v>       0.00333333 </v>
   <v>       0.00333333 </v>
   <v>       0.00333333 </v>
   <v>       0.00333333 </v>
   <v>       0.00333333 </v>
   <v>       0.00333333 </v>
   <v>       0.00333333 </v>
   <v>       0.00333333 </v>
   <v>       0.00333333 </v>
   <v>       0.00333333 </v>
   <v>       0.00333333 </v>
   <v>       0.00333333 </v>
   <v>       0.00333333 </v>
   <v>       0.00333333 </v>
   <v>       0.00333333 </v>
   <v>       0.00333333 </v>
   <v>       0.00333333 </v>
   <v>       0.00333333 </v>
   <v>       0.00333333 </v>
   <v>       0.00333333 </v>
   <v>       0.00333333 </v>
   <v>       0.00333333 </v>
   <v>       0.00333333 </v>
   <v>       0.00333333 </v>
   <v>       0.00333333 </v>
   <v>       0.00333333 </v>
   <v>       0.00333333 </v>
   <v>       0.00333333 </v>
   <v>       0.00333333 </v>
   <v>       0.00333333 </v>
   <v>       0.00333333 </v>
   <v>       0.00333333 </v>
   <v>       0.00333333 </v>
   <v>       0.00333333 </v>
   <v>       0.00333333 </v>
   <v>       0.00333333 </v>
   <v>       0.00333333 </v>
   <v>       0.00333333 </v>
   <v>       0.00333333 </v>
   <v>       0.00333333 </v>
   <v>       0.00333333 </v>
   <v>       0.00333333 </v>
   <v>       0.00333333 </v>
   <v>       0.00333333 </v>
   <v>       0.00333333 </v>
   <v>       0.00333333 </v>
   <v>       0.00333333 </v>
   <v>       0.00333333 </v>
   <v>       0.00333333 </v>
   <v>       0.00333333 </v>
   <v>       0.00333333 </v>
   <v>       0.00333333 </v>
   <v>       0.00333333 </v>
   <v>       0.00333333 </v>
   <v>       0.00333333 </v>
   <v>       0.00333333 </v>
   <v>       0.00333333 </v>
   <v>       0.00333333 </v>
   <v>       0.00333333 </v>
   <v>       0.00333333 </v>
   <v>       0.00333333 </v>
   <v>       0.00333333 </v>
   <v>       0.00333333 </v>
   <v>       0.00333333 </v>
   <v>       0.00333333 </v>
   <v>       0.00333333 </v>
   <v>       0.00333333 </v>
   <v>       0.00333333 </v>
   <v>       0.00333333 </v>
   <v>       0.00333333 </v>
   <v>       0.00333333 </v>
   <v>       0.00333333 </v>
   <v>       0.00333333 </v>
   <v>       0.00333333 </v>
   <v>       0.00333333 </v>
   <v>       0.00333333 </v>
   <v>       0.00333333 </v>
   <v>       0.00333333 </v>
   <v>       0.00333333 </v>
   <v>       0.00333333 </v>
   <v>       0.00333333 </v>
   <v>       0.00333333 </v>
   <v>       0.00333333 </v>
   <v>       0.00333333 </v>
   <v>       0.00333333 </v>
   <v>       0.00333333 </v>
   <v>       0.00333333 </v>
   <v>       0.00333333 </v>
   <v>       0.00333333 </v>
   <v>       0.00333333 </v>
   <v>       0.00333333 </v>
   <v>       0.00333333 </v>
   <v>       0.00333333 </v>
   <v>       0.00333333 </v>
   <v>       0.00333333 </v>
   <v>       0.00333333 </v>
   <v>       0.00333333 </v>
   <v>       0.00333333 </v>
   <v>       0.00333333 </v>
   <v>       0.00333333 </v>
   <v>       0.00333333 </v>
   <v>       0.00333333 </v>
   <v>       0.00333333 </v>
   <v>       0.00333333 </v>
   <v>       0.00333333 </v>
   <v>       0.00333333 </v>
   <v>       0.00333333 </v>
   <v>       0.00333333 </v>
   <v>       0.00333333 </v>
   <v>       0.00333333 </v>
   <v>       0.00333333 </v>
   <v>       0.00333333 </v>
   <v>       0.00333333 </v>
   <v>       0.00333333 </v>
   <v>       0.00333333 </v>
   <v>       0.00333333 </v>
   <v>       0.00333333 </v>
   <v>       0.00333333 </v>
   <v>       0.00333333 </v>
   <v>       0.00333333 </v>
   <v>       0.00333333 </v>
   <v>       0.00333333 </v>
   <v>       0.00333333 </v>
   <v>       0.00333333 </v>
   <v>       0.00333333 </v>
   <v>       0.00333333 </v>
   <v>       0.00333333 </v>
   <v>       0.00333333 </v>
   <v>       0.00333333 </v>
   <v>       0.00333333 </v>
   <v>       0.00333333 </v>
   <v>       0.00333333 </v>
   <v>       0.00333333 </v>
   <v>       0.00333333 </v>
   <v>       0.00333333 </v>
   <v>       0.00333333 </v>
   <v>       0.00333333 </v>
   <v>       0.00333333 </v>
   <v>       0.00333333 </v>
   <v>       0.00333333 </v>
   <v>       0.00333333 </v>
   <v>       0.00333333 </v>
   <v>       0.00333333 </v>
   <v>       0.00333333 </v>
   <v>       0.00333333 </v>
   <v>       0.00333333 </v>
   <v>       0.00333333 </v>
   <v>       0.00333333 </v>
   <v>       0.00333333 </v>
   <v>       0.00333333 </v>
   <v>       0.00333333 </v>
   <v>       0.00333333 </v>
   <v>       0.00333333 </v>
   <v>       0.00333333 </v>
   <v>       0.00333333 </v>
   <v>       0.00333333 </v>
   <v>       0.00333333 </v>
   <v>       0.00333333 </v>
   <v>       0.00333333 </v>
   <v>       0.00333333 </v>
   <v>       0.00333333 </v>
   <v>       0.00333333 </v>
   <v>       0.00333333 </v>
   <v>       0.00333333 </v>
   <v>       0.00333333 </v>
   <v>       0.00333333 </v>
   <v>       0.00333333 </v>
   <v>       0.00333333 </v>
   <v>       0.00333333 </v>
   <v>       0.00333333 </v>
   <v>       0.00333333 </v>
   <v>       0.00333333 </v>
   <v>       0.00333333 </v>
   <v>       0.00333333 </v>
   <v>       0.00333333 </v>
   <v>       0.00333333 </v>
   <v>       0.00333333 </v>
   <v>       0.00333333 </v>
   <v>       0.00333333 </v>
   <v>       0.00333333 </v>
   <v>       0.00333333 </v>
   <v>       0.00333333 </v>
   <v>       0.00333333 </v>
   <v>       0.00333333 </v>
   <v>       0.00333333 </v>
   <v>       0.00333333 </v>
   <v>       0.00333333 </v>
   <v>       0.00333333 </v>
  </varray>
 </kpoints>
 <parameters>
  <separator name="general" >
   <i type="string" name="SYSTEM">Silicon Diamond (band)</i>
   <i type="logical" name="LCOMPAT"> F  </i>
  </separator>
  <separator name="electronic" >
   <i type="string" name="PREC">accura</i>
   <i name="ENMAX">    500.00000000</i>
   <i name="ENAUG">    322.06900000</i>
   <i name="EDIFF">      0.00001000</i>
   <i type="int" name="IALGO">    68</i>
   <i type="int" name="IWAVPR">    10</i>
   <i type="int" name="NBANDS">    12</i>
   <i name="NELECT">      8.00000000</i>
   <i type="int" name="TURBO">     0</i>
   <i type="int" name="IRESTART">     0</i>
   <i type="int" name="NREBOOT">     0</i>
   <i type="int" name="NMIN">     0</i>
   <i name="EREF">      0.00000000</i>
   <separator name="electronic smearing" >
    <i type="int" name="ISMEAR">     0</i>
    <i name="SIGMA">      0.05000000</i>
    <i name="KSPACING">      0.50000000</i>
    <i type="logical" name="KGAMMA"> T  </i>
   </separator>
   <separator name="electronic projectors" >
    <i type="logical" name="LREAL"> F  </i>
    <v name="ROPT">      0.00000000</v>
    <i type="int" name="LMAXPAW">  -100</i>
    <i type="int" name="LMAXMIX">     2</i>
    <i type="logical" name="NLSPLINE"> F  </i>
   </separator>
   <separator name="electronic startup" >
    <i type="int" name="ISTART">     0</i>
    <i type="int" name="ICHARG">    11</i>
    <i type="int" name="INIWAV">     1</i>
   </separator>
   <separator name="electronic spin" >
    <i type="int" name="ISPIN">     2</i>
    <i type="logical" name="LNONCOLLINEAR"> F  </i>
    <v name="MAGMOM">      1.00000000      1.00000000</v>
    <i name="NUPDOWN">     -1.00000000</i>
    <i type="logical" name="LSORBIT"> F  </i>
    <v name="SAXIS">      0.00000000      0.00000000      1.00000000</v>
    <i type="logical" name="LSPIRAL"> F  </i>
    <v name="QSPIRAL">      0.00000000      0.00000000      0.00000000</v>
    <i type="logical" name="LZEROZ"> F  </i>
   </separator>
   <separator name="electronic exchange-correlation" >
    <i type="logical" name="LASPH"> T  </i>
    <i type="logical" name="LMETAGGA"> F  </i>
   </separator>
   <separator name="electronic convergence" >
    <i type="int" name="NELM">   100</i>
    <i type="int" name="NELMDL">    -5</i>
    <i type="int" name="NELMIN">     2</i>
    <i name="ENINI">    500.00000000</i>
    <separator name="electronic convergence detail" >
     <i type="logical" name="LDIAG"> T  </i>
     <i type="logical" name="LSUBROT"> T  </i>
     <i name="WEIMIN">      0.00000000</i>
     <i name="EBREAK">      0.00000021</i>
     <i name="DEPER">      0.30000000</i>
     <i type="int" name="NRMM">     4</i>
     <i name="TIME">      0.40000000</i>
    </separator>
   </separator>
   <separator name="electronic mixer" >
    <i name="AMIX">      0.40000000</i>
    <i name="BMIX">      1.00000000</i>
    <i name="AMIN">      0.10000000</i>
    <i name="AMIX_MAG">      1.60000000</i>
    <i name="BMIX_MAG">      1.00000000</i>
    <separator name="electronic mixer details" >
     <i type="int" name="IMIX">     4</i>
     <i type="int" name="MAXMIX">   -45</i>
     <i name="WC">    100.00000000</i>
     <i type="int" name="INIMIX">     1</i>
     <i type="int" name="MIXPRE">     1</i>
     <i type="int" name="MREMOVE">     5</i>
    </separator>
   </separator>
   <separator name="electronic dipolcorrection" >
    <i type="logical" name="LDIPOL"> F  </i>
    <i type="logical" name="LMONO"> F  </i>
    <i type="int" name="IDIPOL">     0</i>
    <i name="EPSILON">      1.00000000</i>
    <v name="DIPOL">   -100.00000000   -100.00000000   -100.00000000</v>
    <i name="EFIELD">      0.00000000</i>
   </separator>
  </separator>
  <separator name="grids" >
   <i type="int" name="NGX">    28</i>
   <i type="int" name="NGY">    28</i>
   <i type="int" name="NGZ">    28</i>
   <i type="int" name="NGXF">    56</i>
   <i type="int" name="NGYF">    56</i>
   <i type="int" name="NGZF">    56</i>
   <i type="logical" name="ADDGRID"> F  </i>
  </separator>
  <separator name="ionic" >
   <i type="int" name="NSW">     0</i>
   <i type="int" name="IBRION">    -1</i>
   <i type="int" name="ISIF">     3</i>
   <i name="PSTRESS">      0.00000000</i>
   <i name="EDIFFG">     -0.01000000</i>
   <i type="int" name="NFREE">     0</i>
   <i name="POTIM">      0.50000000</i>
   <i name="SMASS">     -3.00000000</i>
   <i name="SCALEE">      1.00000000</i>
  </separator>
  <separator name="ionic md" >
   <i name="TEBEG">      0.00010000</i>
   <i name="TEEND">      0.00010000</i>
   <i type="int" name="NBLOCK">     1</i>
   <i type="int" name="KBLOCK">     1</i>
   <i type="int" name="NPACO">   256</i>
   <i name="APACO">     16.00000000</i>
  </separator>
  <separator name="symmetry" >
   <i type="int" name="ISYM">     2</i>
   <i name="SYMPREC">      0.00001000</i>
  </separator>
  <separator name="dos" >
   <i type="logical" name="LORBIT"> F  </i>
   <v name="RWIGS">     -1.00000000</v>
   <i type="int" name="NEDOS">   301</i>
   <i name="EMIN">     10.00000000</i>
   <i name="EMAX">    -10.00000000</i>
   <i name="EFERMI">      0.00000000</i>
  </separator>
  <separator name="writing" >
   <i type="int" name="NWRITE">     2</i>
   <i type="logical" name="LWAVE"> T  </i>
   <i type="logical" name="LCHARG"> T  </i>
   <i type="logical" name="LPARD"> F  </i>
   <i type="logical" name="LVTOT"> T  </i>
   <i type="logical" name="LVHAR"> F  </i>
   <i type="logical" name="LELF"> T  </i>
   <i type="logical" name="LOPTICS"> F  </i>
   <v name="STM">      0.00000000      0.00000000      0.00000000      0.00000000      0.00000000      0.00000000      0.00000000</v>
  </separator>
  <separator name="performance" >
   <i type="int" name="NPAR">     4</i>
   <i type="int" name="NSIM">     1</i>
   <i type="int" name="NBLK">    -1</i>
   <i type="logical" name="LPLANE"> F  </i>
   <i type="logical" name="LSCALAPACK"> T  </i>
   <i type="logical" name="LSCAAWARE"> F  </i>
   <i type="logical" name="LSCALU"> F  </i>
   <i type="logical" name="LASYNC"> F  </i>
   <i type="logical" name="LORBITALREAL"> F  </i>
  </separator>
  <separator name="miscellaneous" >
   <i type="int" name="IDIOT">     3</i>
   <i type="logical" name="LMUSIC"> F  </i>
   <v name="POMASS">     28.08500000</v>
   <v name="DARWINR">      0.00000000</v>
   <v name="DARWINV">      1.00000000</v>
   <i type="logical" name="LCORR"> T  </i>
  </separator>
  <i type="logical" name="GGA_COMPAT"> T  </i>
  <i type="logical" name="LBERRY"> F  </i>
  <i type="int" name="ICORELEVEL">     0</i>
  <i type="logical" name="LDAU"> F  </i>
  <i type="int" name="I_CONSTRAINED_M">     0</i>
  <separator name="electronic exchange-correlation" >
   <i type="string" name="GGA">--</i>
   <i type="int" name="VOSKOWN">     0</i>
   <i type="logical" name="LHFCALC"> F  </i>
   <i type="string" name="PRECFOCK"></i>
   <i type="logical" name="LSYMGRAD"> F  </i>
   <i type="logical" name="LHFONE"> F  </i>
   <i type="logical" name="LRHFCALC"> F  </i>
   <i type="logical" name="LTHOMAS"> F  </i>
   <i type="logical" name="LMODELHF"> F  </i>
   <i name="ENCUT4O">     -1.00000000</i>
   <i type="int" name="EXXOEP">     0</i>
   <i type="int" name="FOURORBIT">     0</i>
   <i name="AEXX">      0.00000000</i>
   <i name="HFALPHA">      0.00000000</i>
   <i name="MCALPHA">      0.00000000</i>
   <i name="ALDAX">      1.00000000</i>
   <i name="AGGAX">      1.00000000</i>
   <i name="ALDAC">      1.00000000</i>
   <i name="AGGAC">      1.00000000</i>
   <i type="int" name="NKREDX">     1</i>
   <i type="int" name="NKREDY">     1</i>
   <i type="int" name="NKREDZ">     1</i>
   <i type="logical" name="SHIFTRED"> F  </i>
   <i type="logical" name="ODDONLY"> F  </i>
   <i type="logical" name="EVENONLY"> F  </i>
   <i type="int" name="LMAXFOCK">     0</i>
   <i type="int" name="NMAXFOCKAE">     0</i>
   <i type="logical" name="LFOCKAEDFT"> F  </i>
   <i name="HFSCREEN">      0.00000000</i>
   <i name="HFSCREENC">      0.00000000</i>
   <i type="int" name="NBANDSGWLOW">     0</i>
  </separator>
  <separator name="vdW DFT" >
   <i type="logical" name="LUSE_VDW"> F  </i>
   <i name="Zab_VDW">     -0.84910000</i>
   <i name="PARAM1">      0.12340000</i>
   <i name="PARAM2">      1.00000000</i>
   <i name="PARAM3">      0.00000000</i>
  </separator>
  <separator name="model GW" >
   <i type="int" name="MODEL_GW">     0</i>
   <i name="MODEL_EPS0">     12.26520455</i>
   <i name="MODEL_ALPHA">      1.00000000</i>
  </separator>
  <separator name="linear response parameters" >
   <i type="logical" name="LEPSILON"> F  </i>
   <i type="logical" name="LRPA"> F  </i>
   <i type="logical" name="LNABLA"> F  </i>
   <i type="logical" name="LVEL"> F  </i>
   <i type="int" name="KINTER">     0</i>
   <i name="CSHIFT">      0.10000000</i>
   <i name="OMEGAMAX">     -1.00000000</i>
   <i name="DEG_THRESHOLD">      0.00200000</i>
  </separator>
  <separator name="orbital magnetization" >
   <i type="logical" name="NUCIND"> F  </i>
   <v name="MAGPOS">      0.00000000      0.00000000      0.00000000</v>
   <i type="logical" name="LNICSALL"> T  </i>
   <i type="logical" name="ORBITALMAG"> F  </i>
   <i type="logical" name="LMAGBLOCH"> F  </i>
   <i type="logical" name="LCHIMAG"> F  </i>
   <i type="logical" name="LGAUGE"> T  </i>
   <i type="int" name="MAGATOM">     0</i>
   <v name="MAGDIPOL">      0.00000000      0.00000000      0.00000000</v>
   <v name="AVECCONST">      0.00000000      0.00000000      0.00000000</v>
  </separator>
  <separator name="response functions" >
   <i type="logical" name="LADDER"> F  </i>
   <i type="logical" name="LFXC"> F  </i>
   <i type="logical" name="LHARTREE"> T  </i>
   <i type="int" name="IBSE">     0</i>
   <i type="logical" name="LTCTE"> F  </i>
   <i type="logical" name="LTETE"> F  </i>
   <i type="logical" name="LTRIPLET"> F  </i>
   <i type="logical" name="LFXCEPS"> F  </i>
   <i type="logical" name="L2ORDER"> F  </i>
   <i type="logical" name="LUSEW"> F  </i>
   <i name="ENCUTGW">     -2.00000000</i>
   <i name="ENCUTGWSOFT">     -2.00000000</i>
   <i name="ENCUTLF">     -1.00000000</i>
   <i type="int" name="LMAXMP2">    -1</i>
   <i name="SCISSOR">      0.00000000</i>
   <i type="int" name="NOMEGA">     0</i>
   <i type="int" name="NOMEGAR">     0</i>
   <i type="int" name="NBANDSGW">    -1</i>
   <i type="int" name="NBANDSO">    -1</i>
   <i type="int" name="NBANDSV">    -1</i>
   <i type="int" name="NELM">   100</i>
   <i type="int" name="DIM">     3</i>
   <i type="int" name="ANTIRES">     0</i>
   <i name="OMEGAMAX">    -30.00000000</i>
   <i name="OMEGATL">   -200.00000000</i>
   <i type="int" name="OMEGAGRID">     0</i>
   <i name="CSHIFT">     -0.10000000</i>
   <i type="logical" name="SELFENERGY"> F  </i>
   <i type="logical" name="LSPECTRAL"> F  </i>
   <i type="logical" name="ODDONLYGW"> F  </i>
   <i type="logical" name="EVENONLYGW"> F  </i>
   <i type="int" name="NKREDLFX">     1</i>
   <i type="int" name="NKREDLFY">     1</i>
   <i type="int" name="NKREDLFZ">     1</i>
   <i type="int" name="MAXMEM">  1800</i>
   <i type="int" name="TELESCOPE">     0</i>
  </separator>
 </parameters>
 <atominfo>
  <atoms>       2 </atoms>
  <types>       1 </types>
  <array name="atoms" >
   <dimension dim="1">ion</dimension>
   <field type="string">element</field>
   <field type="int">atomtype</field>
   <set>
    <rc><c>Si</c><c>   1</c></rc>
    <rc><c>Si</c><c>   1</c></rc>
   </set>
  </array>
  <array name="atomtypes" >
   <dimension dim="1">type</dimension>
   <field type="int">atomspertype</field>
   <field type="string">element</field>
   <field>mass</field>
   <field>valence</field>
   <field type="string">pseudopotential</field>
   <set>
    <rc><c>   2</c><c>Si</c><c>     28.08500000</c><c>      4.00000000</c><c>  PAW_PBE Si 05Jan2001                  </c></rc>
   </set>
  </array>
 </atominfo>
 <structure name="initialpos" >
  <crystal>
   <varray name="basis" >
    <v>       0.00000000       2.73426864       2.73426864 </v>
    <v>       2.73426864       0.00000000       2.73426864 </v>
    <v>       2.73426864       2.73426864       0.00000000 </v>
   </varray>
   <i name="volume">     40.88401515 </i>
   <varray name="rec_basis" >
    <v>      -0.18286426       0.18286426       0.18286426 </v>
    <v>       0.18286426      -0.18286426       0.18286426 </v>
    <v>       0.18286426       0.18286426      -0.18286426 </v>
   </varray>
  </crystal>
  <varray name="positions" >
   <v>       0.00000000       0.00000000       0.00000000 </v>
   <v>       0.25000000       0.25000000       0.25000000 </v>
  </varray>
 </structure>
 <calculation>
  <scstep>
   <time name="dav">    3.35    3.35</time>
   <time name="total">    3.55    3.57</time>
   <energy>
    <i name="alphaZ">      3.29352493 </i>
    <i name="ewald">   -226.95281687 </i>
    <i name="hartreedc">    -15.18238926 </i>
    <i name="XCdc">    -18.05833075 </i>
    <i name="pawpsdc">    830.12585616 </i>
    <i name="pawaedc">   -795.14510147 </i>
    <i name="eentropy">     -0.00107657 </i>
    <i name="bandstr">     25.96922624 </i>
    <i name="atom">    206.13251344 </i>
    <i name="e_fr_energy">     10.18140584 </i>
    <i name="e_wo_entrp">     10.18248241 </i>
    <i name="e_0_energy">     10.18194412 </i>
   </energy>
  </scstep>
  <scstep>
   <time name="dav">    3.95    3.96</time>
   <time name="total">    3.96    3.97</time>
   <energy>
    <i name="e_fr_energy">     -8.41530073 </i>
    <i name="e_wo_entrp">     -8.41501784 </i>
    <i name="e_0_energy">     -8.41515928 </i>
   </energy>
  </scstep>
  <scstep>
   <time name="dav">    4.02    4.03</time>
   <time name="total">    4.02    4.14</time>
   <energy>
    <i name="e_fr_energy">     -9.26578791 </i>
    <i name="e_wo_entrp">     -9.26578791 </i>
    <i name="e_0_energy">     -9.26578791 </i>
   </energy>
  </scstep>
  <scstep>
   <time name="dav">    3.85    3.86</time>
   <time name="total">    3.85    3.87</time>
   <energy>
    <i name="e_fr_energy">     -9.27315094 </i>
    <i name="e_wo_entrp">     -9.27315094 </i>
    <i name="e_0_energy">     -9.27315094 </i>
   </energy>
  </scstep>
  <scstep>
   <time name="dav">    3.98    3.99</time>
   <time name="total">    3.98    4.00</time>
   <energy>
    <i name="e_fr_energy">     -9.27323207 </i>
    <i name="e_wo_entrp">     -9.27323207 </i>
    <i name="e_0_energy">     -9.27323207 </i>
   </energy>
  </scstep>
  <scstep>
   <time name="diag">    1.00    1.00</time>
   <time name="diis">    2.12    2.12</time>
   <time name="orth">    0.05    0.05</time>
   <time name="total">    3.16    3.18</time>
   <energy>
    <i name="alphaZ">      3.29352493 </i>
    <i name="ewald">   -226.95281687 </i>
    <i name="hartreedc">    -15.18238926 </i>
    <i name="XCdc">    -18.05833075 </i>
    <i name="pawpsdc">    830.12585616 </i>
    <i name="pawaedc">   -795.14510147 </i>
    <i name="eentropy">     -0.00000000 </i>
    <i name="bandstr">      6.51351063 </i>
    <i name="atom">    206.13251344 </i>
    <i name="e_fr_energy">     -9.27323320 </i>
    <i name="e_wo_entrp">     -9.27323320 </i>
    <i name="e_0_energy">     -9.27323320 </i>
   </energy>
  </scstep>
  <structure>
   <crystal>
    <varray name="basis" >
     <v>       0.00000000       2.73426864       2.73426864 </v>
     <v>       2.73426864       0.00000000       2.73426864 </v>
     <v>       2.73426864       2.73426864       0.00000000 </v>
    </varray>
    <i name="volume">     40.88401515 </i>
    <varray name="rec_basis" >
     <v>      -0.18286426       0.18286426       0.18286426 </v>
     <v>       0.18286426      -0.18286426       0.18286426 </v>
     <v>       0.18286426       0.18286426      -0.18286426 </v>
    </varray>
   </crystal>
   <varray name="positions" >
    <v>       0.00000000       0.00000000       0.00000000 </v>
    <v>       0.25000000       0.25000000       0.25000000 </v>
   </varray>
  </structure>
  <varray name="forces" >
   <v>      -0.00000000      -0.00000000      -0.00000000 </v>
   <v>       0.00000000       0.00000000       0.00000000 </v>
  </varray>
  <varray name="stress" >
   <v>      62.76629432      -0.00000000      -0.00000000 </v>
   <v>       0.00000000      62.76629432      -0.00000000 </v>
   <v>      -0.00000000       0.00000000      62.76629432 </v>
  </varray>
  <energy>
   <i name="e_fr_energy">     -9.27323320 </i>
   <i name="e_wo_entrp">     -9.27323320 </i>
   <i name="e_0_energy">     -0.00000000 </i>
  </energy>
  <time name="totalsc">   24.25   24.71</time>
  <eigenvalues>
   <array>
    <dimension dim="1">band</dimension>
    <dimension dim="2">kpoint</dimension>
    <dimension dim="3">spin</dimension>
    <field>eigene</field>
    <field>occ</field>
    <set>
     <set comment="spin 1">
      <set comment="kpoint 1">
       <r>   -6.1971    1.0000 </r>
       <r>    5.6185    1.0000 </r>
       <r>    5.6185    1.0000 </r>
       <r>    5.6185    1.0000 </r>
       <r>    8.1749    0.0000 </r>
       <r>    8.1749    0.0000 </r>
       <r>    8.1749    0.0000 </r>
       <r>    8.7536    0.0000 </r>
       <r>   13.3271    0.0000 </r>
       <r>   13.3271    0.0000 </r>
       <r>   13.4966    0.0000 </r>
       <r>   16.8005    0.0000 </r>
      </set>
      <set comment="kpoint 2">
       <r>   -6.1953    1.0000 </r>
       <r>    5.6054    1.0000 </r>
       <r>    5.6108    1.0000 </r>
       <r>    5.6108    1.0000 </r>
       <r>    8.1704    0.0000 </r>
       <r>    8.1848    0.0000 </r>
       <r>    8.1848    0.0000 </r>
       <r>    8.7665    0.0000 </r>
       <r>   13.3121    0.0000 </r>
       <r>   13.3291    0.0000 </r>
       <r>   13.5047    0.0000 </r>
       <r>   16.8085    0.0000 </r>
      </set>
      <set comment="kpoint 3">
       <r>   -6.1900    1.0000 </r>
       <r>    5.5667    1.0000 </r>
       <r>    5.5879    1.0000 </r>
       <r>    5.5879    1.0000 </r>
       <r>    8.1571    0.0000 </r>
       <r>    8.2143    0.0000 </r>
       <r>    8.2143    0.0000 </r>
       <r>    8.8045    0.0000 </r>
       <r>   13.2681    0.0000 </r>
       <r>   13.3350    0.0000 </r>
       <r>   13.5287    0.0000 </r>
       <r>   16.8142    0.0000 </r>
      </set>
      <set comment="kpoint 4">
       <r>   -6.1810    1.0000 </r>
       <r>    5.5042    1.0000 </r>
       <r>    5.5510    1.0000 </r>
       <r>    5.5510    1.0000 </r>
       <r>    8.1351    0.0000 </r>
       <r>    8.2623    0.0000 </r>
       <r>    8.2623    0.0000 </r>
       <r>    8.8654    0.0000 </r>
       <r>   13.1976    0.0000 </r>
       <r>   13.3450    0.0000 </r>
       <r>   13.5684    0.0000 </r>
       <r>   16.8318    0.0000 </r>
      </set>
      <set comment="kpoint 5">
       <r>   -6.1685    1.0000 </r>
       <r>    5.4207    1.0000 </r>
       <r>    5.5016    1.0000 </r>
       <r>    5.5016    1.0000 </r>
       <r>    8.1050    0.0000 </r>
       <r>    8.3272    0.0000 </r>
       <r>    8.3272    0.0000 </r>
       <r>    8.9461    0.0000 </r>
       <r>   13.1043    0.0000 </r>
       <r>   13.3589    0.0000 </r>
       <r>   13.6234    0.0000 </r>
       <r>   16.8511    0.0000 </r>
      </set>
      <set comment="kpoint 6">
       <r>   -6.1524    1.0000 </r>
       <r>    5.3191    1.0000 </r>
       <r>    5.4414    1.0000 </r>
       <r>    5.4414    1.0000 </r>
       <r>    8.0674    0.0000 </r>
       <r>    8.4072    0.0000 </r>
       <r>    8.4072    0.0000 </r>
       <r>    9.0432    0.0000 </r>
       <r>   12.9926    0.0000 </r>
       <r>   13.3768    0.0000 </r>
       <r>   13.6931    0.0000 </r>
       <r>   16.8789    0.0000 </r>
      </set>
      <set comment="kpoint 7">
       <r>   -6.1327    1.0000 </r>
       <r>    5.2023    1.0000 </r>
       <r>    5.3723    1.0000 </r>
       <r>    5.3723    1.0000 </r>
       <r>    8.0227    0.0000 </r>
       <r>    8.5005    0.0000 </r>
       <r>    8.5005    0.0000 </r>
       <r>    9.1526    0.0000 </r>
       <r>   12.8672    0.0000 </r>
       <r>   13.3987    0.0000 </r>
       <r>   13.7768    0.0000 </r>
       <r>   16.9134    0.0000 </r>
      </set>
      <set comment="kpoint 8">
       <r>   -6.1094    1.0000 </r>
       <r>    5.0730    1.0000 </r>
       <r>    5.2960    1.0000 </r>
       <r>    5.2960    1.0000 </r>
       <r>    7.9719    0.0000 </r>
       <r>    8.6054    0.0000 </r>
       <r>    8.6054    0.0000 </r>
       <r>    9.2705    0.0000 </r>
       <r>   12.7331    0.0000 </r>
       <r>   13.4245    0.0000 </r>
       <r>   13.8736    0.0000 </r>
       <r>   16.9543    0.0000 </r>
      </set>
      <set comment="kpoint 9">
       <r>   -6.0826    1.0000 </r>
       <r>    4.9336    1.0000 </r>
       <r>    5.2141    1.0000 </r>
       <r>    5.2141    1.0000 </r>
       <r>    7.9157    0.0000 </r>
       <r>    8.7201    0.0000 </r>
       <r>    8.7201    0.0000 </r>
       <r>    9.3925    0.0000 </r>
       <r>   12.5952    0.0000 </r>
       <r>   13.4543    0.0000 </r>
       <r>   13.9829    0.0000 </r>
       <r>   17.0008    0.0000 </r>
      </set>
      <set comment="kpoint 10">
       <r>   -6.0522    1.0000 </r>
       <r>    4.7859    1.0000 </r>
       <r>    5.1280    1.0000 </r>
       <r>    5.1280    1.0000 </r>
       <r>    7.8548    0.0000 </r>
       <r>    8.8435    0.0000 </r>
       <r>    8.8435    0.0000 </r>
       <r>    9.5143    0.0000 </r>
       <r>   12.4588    0.0000 </r>
       <r>   13.4881    0.0000 </r>
       <r>   14.1038    0.0000 </r>
       <r>   17.0535    0.0000 </r>
      </set>
      <set comment="kpoint 11">
       <r>   -6.0183    1.0000 </r>
       <r>    4.6317    1.0000 </r>
       <r>    5.0389    1.0000 </r>
       <r>    5.0389    1.0000 </r>
       <r>    7.7900    0.0000 </r>
       <r>    8.9741    0.0000 </r>
       <r>    8.9741    0.0000 </r>
       <r>    9.6307    0.0000 </r>
       <r>   12.3298    0.0000 </r>
       <r>   13.5259    0.0000 </r>
       <r>   14.2354    0.0000 </r>
       <r>   17.1125    0.0000 </r>
      </set>
      <set comment="kpoint 12">
       <r>   -5.9808    1.0000 </r>
       <r>    4.4720    1.0000 </r>
       <r>    4.9476    1.0000 </r>
       <r>    4.9476    1.0000 </r>
       <r>    7.7220    0.0000 </r>
       <r>    9.1112    0.0000 </r>
       <r>    9.1112    0.0000 </r>
       <r>    9.7356    0.0000 </r>
       <r>   12.2147    0.0000 </r>
       <r>   13.5676    0.0000 </r>
       <r>   14.3771    0.0000 </r>
       <r>   17.1775    0.0000 </r>
      </set>
      <set comment="kpoint 13">
       <r>   -5.9398    1.0000 </r>
       <r>    4.3081    1.0000 </r>
       <r>    4.8551    1.0000 </r>
       <r>    4.8551    1.0000 </r>
       <r>    7.6516    0.0000 </r>
       <r>    9.2537    0.0000 </r>
       <r>    9.2537    0.0000 </r>
       <r>    9.8220    0.0000 </r>
       <r>   12.1214    0.0000 </r>
       <r>   13.6134    0.0000 </r>
       <r>   14.5279    0.0000 </r>
       <r>   17.2488    0.0000 </r>
      </set>
      <set comment="kpoint 14">
       <r>   -5.8953    1.0000 </r>
       <r>    4.1406    1.0000 </r>
       <r>    4.7619    1.0000 </r>
       <r>    4.7619    1.0000 </r>
       <r>    7.5793    0.0000 </r>
       <r>    9.4010    0.0000 </r>
       <r>    9.4010    0.0000 </r>
       <r>    9.8821    0.0000 </r>
       <r>   12.0578    0.0000 </r>
       <r>   13.6630    0.0000 </r>
       <r>   14.6872    0.0000 </r>
       <r>   17.3253    0.0000 </r>
      </set>
      <set comment="kpoint 15">
       <r>   -5.8473    1.0000 </r>
       <r>    3.9703    1.0000 </r>
       <r>    4.6687    1.0000 </r>
       <r>    4.6687    1.0000 </r>
       <r>    7.5059    0.0000 </r>
       <r>    9.5526    0.0000 </r>
       <r>    9.5526    0.0000 </r>
       <r>    9.9091    0.0000 </r>
       <r>   12.0313    0.0000 </r>
       <r>   13.7166    0.0000 </r>
       <r>   14.8542    0.0000 </r>
       <r>   17.4102    0.0000 </r>
      </set>
      <set comment="kpoint 16">
       <r>   -5.7957    1.0000 </r>
       <r>    3.7976    1.0000 </r>
       <r>    4.5759    1.0000 </r>
       <r>    4.5759    1.0000 </r>
       <r>    7.4317    0.0000 </r>
       <r>    9.7079    0.0000 </r>
       <r>    9.7079    0.0000 </r>
       <r>    9.8991    0.0000 </r>
       <r>   12.0460    0.0000 </r>
       <r>   13.7742    0.0000 </r>
       <r>   15.0284    0.0000 </r>
       <r>   17.4959    0.0000 </r>
      </set>
      <set comment="kpoint 17">
       <r>   -5.7407    1.0000 </r>
       <r>    3.6231    1.0000 </r>
       <r>    4.4839    1.0000 </r>
       <r>    4.4839    1.0000 </r>
       <r>    7.3573    0.0000 </r>
       <r>    9.8528    0.0000 </r>
       <r>    9.8664    0.0000 </r>
       <r>    9.8664    0.0000 </r>
       <r>   12.1017    0.0000 </r>
       <r>   13.8358    0.0000 </r>
       <r>   15.2091    0.0000 </r>
       <r>   17.5895    0.0000 </r>
      </set>
      <set comment="kpoint 18">
       <r>   -5.6822    1.0000 </r>
       <r>    3.4470    1.0000 </r>
       <r>    4.3930    1.0000 </r>
       <r>    4.3930    1.0000 </r>
       <r>    7.2832    0.0000 </r>
       <r>    9.7748    0.0000 </r>
       <r>   10.0279    0.0000 </r>
       <r>   10.0279    0.0000 </r>
       <r>   12.1939    0.0000 </r>
       <r>   13.9013    0.0000 </r>
       <r>   15.3956    0.0000 </r>
       <r>   17.6880    0.0000 </r>
      </set>
      <set comment="kpoint 19">
       <r>   -5.6203    1.0000 </r>
       <r>    3.2697    1.0000 </r>
       <r>    4.3036    1.0000 </r>
       <r>    4.3036    1.0000 </r>
       <r>    7.2097    0.0000 </r>
       <r>    9.6718    0.0000 </r>
       <r>   10.1921    0.0000 </r>
       <r>   10.1921    0.0000 </r>
       <r>   12.3161    0.0000 </r>
       <r>   13.9708    0.0000 </r>
       <r>   15.5875    0.0000 </r>
       <r>   17.7923    0.0000 </r>
      </set>
      <set comment="kpoint 20">
       <r>   -5.5549    1.0000 </r>
       <r>    3.0914    1.0000 </r>
       <r>    4.2157    1.0000 </r>
       <r>    4.2157    1.0000 </r>
       <r>    7.1372    0.0000 </r>
       <r>    9.5506    0.0000 </r>
       <r>   10.3586    0.0000 </r>
       <r>   10.3586    0.0000 </r>
       <r>   12.4617    0.0000 </r>
       <r>   14.0442    0.0000 </r>
       <r>   15.7839    0.0000 </r>
       <r>   17.8996    0.0000 </r>
      </set>
      <set comment="kpoint 21">
       <r>   -5.4860    1.0000 </r>
       <r>    2.9122    1.0000 </r>
       <r>    4.1297    1.0000 </r>
       <r>    4.1297    1.0000 </r>
       <r>    7.0660    0.0000 </r>
       <r>    9.4167    0.0000 </r>
       <r>   10.5273    0.0000 </r>
       <r>   10.5273    0.0000 </r>
       <r>   12.6253    0.0000 </r>
       <r>   14.1216    0.0000 </r>
       <r>   15.9845    0.0000 </r>
       <r>   18.0282    0.0000 </r>
      </set>
      <set comment="kpoint 22">
       <r>   -5.4138    1.0000 </r>
       <r>    2.7325    1.0000 </r>
       <r>    4.0457    1.0000 </r>
       <r>    4.0457    1.0000 </r>
       <r>    6.9965    0.0000 </r>
       <r>    9.2747    0.0000 </r>
       <r>   10.6979    0.0000 </r>
       <r>   10.6979    0.0000 </r>
       <r>   12.8023    0.0000 </r>
       <r>   14.2029    0.0000 </r>
       <r>   16.1885    0.0000 </r>
       <r>   18.1254    0.0000 </r>
      </set>
      <set comment="kpoint 23">
       <r>   -5.3382    1.0000 </r>
       <r>    2.5522    1.0000 </r>
       <r>    3.9639    1.0000 </r>
       <r>    3.9639    1.0000 </r>
       <r>    6.9289    0.0000 </r>
       <r>    9.1278    0.0000 </r>
       <r>   10.8703    0.0000 </r>
       <r>   10.8703    0.0000 </r>
       <r>   12.9896    0.0000 </r>
       <r>   14.2881    0.0000 </r>
       <r>   16.3955    0.0000 </r>
       <r>   18.2427    0.0000 </r>
      </set>
      <set comment="kpoint 24">
       <r>   -5.2592    1.0000 </r>
       <r>    2.3716    1.0000 </r>
       <r>    3.8844    1.0000 </r>
       <r>    3.8844    1.0000 </r>
       <r>    6.8634    0.0000 </r>
       <r>    8.9785    0.0000 </r>
       <r>   11.0444    0.0000 </r>
       <r>   11.0444    0.0000 </r>
       <r>   13.1848    0.0000 </r>
       <r>   14.3774    0.0000 </r>
       <r>   16.6046    0.0000 </r>
       <r>   18.3608    0.0000 </r>
      </set>
      <set comment="kpoint 25">
       <r>   -5.1769    1.0000 </r>
       <r>    2.1907    1.0000 </r>
       <r>    3.8072    1.0000 </r>
       <r>    3.8072    1.0000 </r>
       <r>    6.8002    0.0000 </r>
       <r>    8.8287    0.0000 </r>
       <r>   11.2200    0.0000 </r>
       <r>   11.2200    0.0000 </r>
       <r>   13.3859    0.0000 </r>
       <r>   14.4705    0.0000 </r>
       <r>   16.8152    0.0000 </r>
       <r>   18.4781    0.0000 </r>
      </set>
      <set comment="kpoint 26">
       <r>   -5.0912    1.0000 </r>
       <r>    2.0097    1.0000 </r>
       <r>    3.7326    1.0000 </r>
       <r>    3.7326    1.0000 </r>
       <r>    6.7396    0.0000 </r>
       <r>    8.6796    0.0000 </r>
       <r>   11.3969    0.0000 </r>
       <r>   11.3969    0.0000 </r>
       <r>   13.5915    0.0000 </r>
       <r>   14.5676    0.0000 </r>
       <r>   17.0264    0.0000 </r>
       <r>   18.5941    0.0000 </r>
      </set>
      <set comment="kpoint 27">
       <r>   -5.0022    1.0000 </r>
       <r>    1.8287    1.0000 </r>
       <r>    3.6605    1.0000 </r>
       <r>    3.6605    1.0000 </r>
       <r>    6.6817    0.0000 </r>
       <r>    8.5323    0.0000 </r>
       <r>   11.5752    0.0000 </r>
       <r>   11.5752    0.0000 </r>
       <r>   13.8007    0.0000 </r>
       <r>   14.6686    0.0000 </r>
       <r>   17.2374    0.0000 </r>
       <r>   18.7052    0.0000 </r>
      </set>
      <set comment="kpoint 28">
       <r>   -4.9100    1.0000 </r>
       <r>    1.6478    1.0000 </r>
       <r>    3.5911    1.0000 </r>
       <r>    3.5911    1.0000 </r>
       <r>    6.6267    0.0000 </r>
       <r>    8.3876    0.0000 </r>
       <r>   11.7547    0.0000 </r>
       <r>   11.7547    0.0000 </r>
       <r>   14.0125    0.0000 </r>
       <r>   14.7735    0.0000 </r>
       <r>   17.4471    0.0000 </r>
       <r>   18.8047    0.0000 </r>
      </set>
      <set comment="kpoint 29">
       <r>   -4.8146    1.0000 </r>
       <r>    1.4670    1.0000 </r>
       <r>    3.5245    1.0000 </r>
       <r>    3.5245    1.0000 </r>
       <r>    6.5748    0.0000 </r>
       <r>    8.2461    0.0000 </r>
       <r>   11.9353    0.0000 </r>
       <r>   11.9353    0.0000 </r>
       <r>   14.2261    0.0000 </r>
       <r>   14.8823    0.0000 </r>
       <r>   17.6544    0.0000 </r>
       <r>   18.8930    0.0000 </r>
      </set>
      <set comment="kpoint 30">
       <r>   -4.7159    1.0000 </r>
       <r>    1.2865    1.0000 </r>
       <r>    3.4606    1.0000 </r>
       <r>    3.4606    1.0000 </r>
       <r>    6.5260    0.0000 </r>
       <r>    8.1082    0.0000 </r>
       <r>   12.1170    0.0000 </r>
       <r>   12.1170    0.0000 </r>
       <r>   14.4410    0.0000 </r>
       <r>   14.9951    0.0000 </r>
       <r>   17.8579    0.0000 </r>
       <r>   18.9628    0.0000 </r>
      </set>
      <set comment="kpoint 31">
       <r>   -4.6140    1.0000 </r>
       <r>    1.1063    1.0000 </r>
       <r>    3.3996    1.0000 </r>
       <r>    3.3996    1.0000 </r>
       <r>    6.4806    0.0000 </r>
       <r>    7.9745    0.0000 </r>
       <r>   12.2997    0.0000 </r>
       <r>   12.2997    0.0000 </r>
       <r>   14.6567    0.0000 </r>
       <r>   15.1118    0.0000 </r>
       <r>   18.0560    0.0000 </r>
       <r>   19.0084    0.0000 </r>
      </set>
      <set comment="kpoint 32">
       <r>   -4.5090    1.0000 </r>
       <r>    0.9266    1.0000 </r>
       <r>    3.3415    1.0000 </r>
       <r>    3.3415    1.0000 </r>
       <r>    6.4385    0.0000 </r>
       <r>    7.8450    0.0000 </r>
       <r>   12.4834    0.0000 </r>
       <r>   12.4834    0.0000 </r>
       <r>   14.8727    0.0000 </r>
       <r>   15.2324    0.0000 </r>
       <r>   18.2493    0.0000 </r>
       <r>   19.0243    0.0000 </r>
      </set>
      <set comment="kpoint 33">
       <r>   -4.4009    1.0000 </r>
       <r>    0.7474    1.0000 </r>
       <r>    3.2863    1.0000 </r>
       <r>    3.2863    1.0000 </r>
       <r>    6.4000    0.0000 </r>
       <r>    7.7201    0.0000 </r>
       <r>   12.6681    0.0000 </r>
       <r>   12.6681    0.0000 </r>
       <r>   15.0886    0.0000 </r>
       <r>   15.3568    0.0000 </r>
       <r>   18.4282    0.0000 </r>
       <r>   19.0065    0.0000 </r>
      </set>
      <set comment="kpoint 34">
       <r>   -4.2896    1.0000 </r>
       <r>    0.5688    1.0000 </r>
       <r>    3.2341    1.0000 </r>
       <r>    3.2341    1.0000 </r>
       <r>    6.3651    0.0000 </r>
       <r>    7.6000    0.0000 </r>
       <r>   12.8536    0.0000 </r>
       <r>   12.8536    0.0000 </r>
       <r>   15.3041    0.0000 </r>
       <r>   15.4852    0.0000 </r>
       <r>   18.5999    0.0000 </r>
       <r>   18.9538    0.0000 </r>
      </set>
      <set comment="kpoint 35">
       <r>   -4.1754    1.0000 </r>
       <r>    0.3909    1.0000 </r>
       <r>    3.1849    1.0000 </r>
       <r>    3.1849    1.0000 </r>
       <r>    6.3340    0.0000 </r>
       <r>    7.4848    0.0000 </r>
       <r>   13.0399    0.0000 </r>
       <r>   13.0399    0.0000 </r>
       <r>   15.5188    0.0000 </r>
       <r>   15.6174    0.0000 </r>
       <r>   18.7681    0.0000 </r>
       <r>   18.8685    0.0000 </r>
      </set>
      <set comment="kpoint 36">
       <r>   -4.0581    1.0000 </r>
       <r>    0.2139    1.0000 </r>
       <r>    3.1388    1.0000 </r>
       <r>    3.1388    1.0000 </r>
       <r>    6.3067    0.0000 </r>
       <r>    7.3745    0.0000 </r>
       <r>   13.2271    0.0000 </r>
       <r>   13.2271    0.0000 </r>
       <r>   15.7324    0.0000 </r>
       <r>   15.7535    0.0000 </r>
       <r>   18.7548    0.0000 </r>
       <r>   18.8167    0.0000 </r>
      </set>
      <set comment="kpoint 37">
       <r>   -3.9379    1.0000 </r>
       <r>    0.0377    1.0000 </r>
       <r>    3.0957    1.0000 </r>
       <r>    3.0957    1.0000 </r>
       <r>    6.2833    0.0000 </r>
       <r>    7.2693    0.0000 </r>
       <r>   13.4149    0.0000 </r>
       <r>   13.4149    0.0000 </r>
       <r>   15.8935    0.0000 </r>
       <r>   15.9446    0.0000 </r>
       <r>   18.6180    0.0000 </r>
       <r>   18.6226    0.0000 </r>
      </set>
      <set comment="kpoint 38">
       <r>   -3.8147    1.0000 </r>
       <r>   -0.1375    1.0000 </r>
       <r>    3.0557    1.0000 </r>
       <r>    3.0557    1.0000 </r>
       <r>    6.2639    0.0000 </r>
       <r>    7.1693    0.0000 </r>
       <r>   13.6034    0.0000 </r>
       <r>   13.6034    0.0000 </r>
       <r>   16.0374    0.0000 </r>
       <r>   16.1550    0.0000 </r>
       <r>   18.4633    0.0000 </r>
       <r>   18.4947    0.0000 </r>
      </set>
      <set comment="kpoint 39">
       <r>   -3.6887    1.0000 </r>
       <r>   -0.3115    1.0000 </r>
       <r>    3.0189    1.0000 </r>
       <r>    3.0189    1.0000 </r>
       <r>    6.2486    0.0000 </r>
       <r>    7.0744    0.0000 </r>
       <r>   13.7923    0.0000 </r>
       <r>   13.7923    0.0000 </r>
       <r>   16.1851    0.0000 </r>
       <r>   16.3636    0.0000 </r>
       <r>   18.2953    0.0000 </r>
       <r>   18.2982    0.0000 </r>
      </set>
      <set comment="kpoint 40">
       <r>   -3.5599    1.0000 </r>
       <r>   -0.4844    1.0000 </r>
       <r>    2.9852    1.0000 </r>
       <r>    2.9852    1.0000 </r>
       <r>    6.2375    0.0000 </r>
       <r>    6.9846    0.0000 </r>
       <r>   13.9815    0.0000 </r>
       <r>   13.9815    0.0000 </r>
       <r>   16.3367    0.0000 </r>
       <r>   16.5698    0.0000 </r>
       <r>   18.1177    0.0000 </r>
       <r>   18.1263    0.0000 </r>
      </set>
      <set comment="kpoint 41">
       <r>   -3.4282    1.0000 </r>
       <r>   -0.6560    1.0000 </r>
       <r>    2.9546    1.0000 </r>
       <r>    2.9546    1.0000 </r>
       <r>    6.2305    0.0000 </r>
       <r>    6.9001    0.0000 </r>
       <r>   14.1708    0.0000 </r>
       <r>   14.1708    0.0000 </r>
       <r>   16.4921    0.0000 </r>
       <r>   16.7735    0.0000 </r>
       <r>   17.9335    0.0000 </r>
       <r>   17.9413    0.0000 </r>
      </set>
      <set comment="kpoint 42">
       <r>   -3.2939    1.0000 </r>
       <r>   -0.8263    1.0000 </r>
       <r>    2.9273    1.0000 </r>
       <r>    2.9273    1.0000 </r>
       <r>    6.2279    0.0000 </r>
       <r>    6.8208    0.0000 </r>
       <r>   14.3598    0.0000 </r>
       <r>   14.3598    0.0000 </r>
       <r>   16.6513    0.0000 </r>
       <r>   16.9743    0.0000 </r>
       <r>   17.7452    0.0000 </r>
       <r>   17.7455    0.0000 </r>
      </set>
      <set comment="kpoint 43">
       <r>   -3.1569    1.0000 </r>
       <r>   -0.9951    1.0000 </r>
       <r>    2.9031    1.0000 </r>
       <r>    2.9031    1.0000 </r>
       <r>    6.2297    0.0000 </r>
       <r>    6.7466    0.0000 </r>
       <r>   14.5479    0.0000 </r>
       <r>   14.5480    0.0000 </r>
       <r>   16.8144    0.0000 </r>
       <r>   17.1727    0.0000 </r>
       <r>   17.5554    0.0000 </r>
       <r>   17.5565    0.0000 </r>
      </set>
      <set comment="kpoint 44">
       <r>   -3.0172    1.0000 </r>
       <r>   -1.1623    1.0000 </r>
       <r>    2.8821    1.0000 </r>
       <r>    2.8821    1.0000 </r>
       <r>    6.2358    0.0000 </r>
       <r>    6.6776    0.0000 </r>
       <r>   14.7343    0.0000 </r>
       <r>   14.7343    0.0000 </r>
       <r>   16.9811    0.0000 </r>
       <r>   17.3651    0.0000 </r>
       <r>   17.3652    0.0000 </r>
       <r>   17.3658    0.0000 </r>
      </set>
      <set comment="kpoint 45">
       <r>   -2.8750    1.0000 </r>
       <r>   -1.3279    1.0000 </r>
       <r>    2.8643    1.0000 </r>
       <r>    2.8643    1.0000 </r>
       <r>    6.2465    0.0000 </r>
       <r>    6.6136    0.0000 </r>
       <r>   14.9174    0.0000 </r>
       <r>   14.9174    0.0000 </r>
       <r>   17.1518    0.0000 </r>
       <r>   17.1777    0.0000 </r>
       <r>   17.1777    0.0000 </r>
       <r>   17.5557    0.0000 </r>
      </set>
      <set comment="kpoint 46">
       <r>   -2.7304    1.0000 </r>
       <r>   -1.4917    1.0000 </r>
       <r>    2.8498    1.0000 </r>
       <r>    2.8498    1.0000 </r>
       <r>    6.2617    0.0000 </r>
       <r>    6.5548    0.0000 </r>
       <r>   15.0946    0.0000 </r>
       <r>   15.0946    0.0000 </r>
       <r>   16.9963    0.0000 </r>
       <r>   16.9968    0.0000 </r>
       <r>   17.3285    0.0000 </r>
       <r>   17.7418    0.0000 </r>
      </set>
      <set comment="kpoint 47">
       <r>   -2.5833    1.0000 </r>
       <r>   -1.6538    1.0000 </r>
       <r>    2.8385    1.0000 </r>
       <r>    2.8385    1.0000 </r>
       <r>    6.2816    0.0000 </r>
       <r>    6.5010    0.0000 </r>
       <r>   15.2611    0.0000 </r>
       <r>   15.2611    0.0000 </r>
       <r>   16.8260    0.0000 </r>
       <r>   16.8264    0.0000 </r>
       <r>   17.5057    0.0000 </r>
       <r>   17.9254    0.0000 </r>
      </set>
      <set comment="kpoint 48">
       <r>   -2.4338    1.0000 </r>
       <r>   -1.8139    1.0000 </r>
       <r>    2.8304    1.0000 </r>
       <r>    2.8304    1.0000 </r>
       <r>    6.3061    0.0000 </r>
       <r>    6.4522    0.0000 </r>
       <r>   15.4072    0.0000 </r>
       <r>   15.4072    0.0000 </r>
       <r>   16.6769    0.0000 </r>
       <r>   16.6769    0.0000 </r>
       <r>   17.6863    0.0000 </r>
       <r>   18.0960    0.0000 </r>
      </set>
      <set comment="kpoint 49">
       <r>   -2.2821    1.0000 </r>
       <r>   -1.9721    1.0000 </r>
       <r>    2.8255    1.0000 </r>
       <r>    2.8255    1.0000 </r>
       <r>    6.3354    0.0000 </r>
       <r>    6.4084    0.0000 </r>
       <r>   15.5146    0.0000 </r>
       <r>   15.5146    0.0000 </r>
       <r>   16.5677    0.0000 </r>
       <r>   16.5677    0.0000 </r>
       <r>   17.8747    0.0000 </r>
       <r>   18.2575    0.0000 </r>
      </set>
      <set comment="kpoint 50">
       <r>   -2.1282    1.0000 </r>
       <r>   -2.1282    1.0000 </r>
       <r>    2.8239    1.0000 </r>
       <r>    2.8239    1.0000 </r>
       <r>    6.3695    0.0000 </r>
       <r>    6.3695    0.0000 </r>
       <r>   15.5557    0.0000 </r>
       <r>   15.5559    0.0000 </r>
       <r>   16.5258    0.0000 </r>
       <r>   16.5259    0.0000 </r>
       <r>   18.0615    0.0000 </r>
       <r>   18.0636    0.0000 </r>
      </set>
      <set comment="kpoint 51">
       <r>   -2.1282    1.0000 </r>
       <r>   -2.1282    1.0000 </r>
       <r>    2.8239    1.0000 </r>
       <r>    2.8239    1.0000 </r>
       <r>    6.3695    0.0000 </r>
       <r>    6.3695    0.0000 </r>
       <r>   15.5557    0.0000 </r>
       <r>   15.5557    0.0000 </r>
       <r>   16.5259    0.0000 </r>
       <r>   16.5259    0.0000 </r>
       <r>   18.0623    0.0000 </r>
       <r>   18.1383    0.0000 </r>
      </set>
      <set comment="kpoint 52">
       <r>   -2.1283    1.0000 </r>
       <r>   -2.1279    1.0000 </r>
       <r>    2.8224    1.0000 </r>
       <r>    2.8241    1.0000 </r>
       <r>    6.3697    0.0000 </r>
       <r>    6.3718    0.0000 </r>
       <r>   15.5533    0.0000 </r>
       <r>   15.5544    0.0000 </r>
       <r>   16.5219    0.0000 </r>
       <r>   16.5229    0.0000 </r>
       <r>   18.0641    0.0000 </r>
       <r>   18.0708    0.0000 </r>
      </set>
      <set comment="kpoint 53">
       <r>   -2.1285    1.0000 </r>
       <r>   -2.1272    1.0000 </r>
       <r>    2.8178    1.0000 </r>
       <r>    2.8246    1.0000 </r>
       <r>    6.3703    0.0000 </r>
       <r>    6.3786    0.0000 </r>
       <r>   15.5460    0.0000 </r>
       <r>   15.5503    0.0000 </r>
       <r>   16.5102    0.0000 </r>
       <r>   16.5143    0.0000 </r>
       <r>   18.0727    0.0000 </r>
       <r>   18.1013    0.0000 </r>
      </set>
      <set comment="kpoint 54">
       <r>   -2.1290    1.0000 </r>
       <r>   -2.1260    1.0000 </r>
       <r>    2.8102    1.0000 </r>
       <r>    2.8255    1.0000 </r>
       <r>    6.3713    0.0000 </r>
       <r>    6.3899    0.0000 </r>
       <r>   15.5338    0.0000 </r>
       <r>   15.5434    0.0000 </r>
       <r>   16.4911    0.0000 </r>
       <r>   16.5000    0.0000 </r>
       <r>   18.0858    0.0000 </r>
       <r>   18.0941    0.0000 </r>
      </set>
      <set comment="kpoint 55">
       <r>   -2.1297    1.0000 </r>
       <r>   -2.1243    1.0000 </r>
       <r>    2.7997    1.0000 </r>
       <r>    2.8268    1.0000 </r>
       <r>    6.3728    0.0000 </r>
       <r>    6.4057    0.0000 </r>
       <r>   15.5169    0.0000 </r>
       <r>   15.5339    0.0000 </r>
       <r>   16.4650    0.0000 </r>
       <r>   16.4804    0.0000 </r>
       <r>   18.1040    0.0000 </r>
       <r>   18.1105    0.0000 </r>
      </set>
      <set comment="kpoint 56">
       <r>   -2.1306    1.0000 </r>
       <r>   -2.1221    1.0000 </r>
       <r>    2.7863    1.0000 </r>
       <r>    2.8284    1.0000 </r>
       <r>    6.3746    0.0000 </r>
       <r>    6.4258    0.0000 </r>
       <r>   15.4956    0.0000 </r>
       <r>   15.5218    0.0000 </r>
       <r>   16.4324    0.0000 </r>
       <r>   16.4560    0.0000 </r>
       <r>   18.1277    0.0000 </r>
       <r>   18.1386    0.0000 </r>
      </set>
      <set comment="kpoint 57">
       <r>   -2.1317    1.0000 </r>
       <r>   -2.1194    1.0000 </r>
       <r>    2.7702    1.0000 </r>
       <r>    2.8304    1.0000 </r>
       <r>    6.3769    0.0000 </r>
       <r>    6.4502    0.0000 </r>
       <r>   15.4701    0.0000 </r>
       <r>   15.5071    0.0000 </r>
       <r>   16.3941    0.0000 </r>
       <r>   16.4272    0.0000 </r>
       <r>   18.1562    0.0000 </r>
       <r>   18.2059    0.0000 </r>
      </set>
      <set comment="kpoint 58">
       <r>   -2.1330    1.0000 </r>
       <r>   -2.1162    1.0000 </r>
       <r>    2.7515    1.0000 </r>
       <r>    2.8327    1.0000 </r>
       <r>    6.3796    0.0000 </r>
       <r>    6.4787    0.0000 </r>
       <r>   15.4406    0.0000 </r>
       <r>   15.4899    0.0000 </r>
       <r>   16.3507    0.0000 </r>
       <r>   16.3942    0.0000 </r>
       <r>   18.1858    0.0000 </r>
       <r>   18.1910    0.0000 </r>
      </set>
      <set comment="kpoint 59">
       <r>   -2.1346    1.0000 </r>
       <r>   -2.1126    1.0000 </r>
       <r>    2.7303    1.0000 </r>
       <r>    2.8354    1.0000 </r>
       <r>    6.3827    0.0000 </r>
       <r>    6.5112    0.0000 </r>
       <r>   15.4075    0.0000 </r>
       <r>   15.4704    0.0000 </r>
       <r>   16.3029    0.0000 </r>
       <r>   16.3576    0.0000 </r>
       <r>   18.2214    0.0000 </r>
       <r>   18.2378    0.0000 </r>
      </set>
      <set comment="kpoint 60">
       <r>   -2.1363    1.0000 </r>
       <r>   -2.1085    1.0000 </r>
       <r>    2.7068    1.0000 </r>
       <r>    2.8384    1.0000 </r>
       <r>    6.3862    0.0000 </r>
       <r>    6.5475    0.0000 </r>
       <r>   15.3709    0.0000 </r>
       <r>   15.4485    0.0000 </r>
       <r>   16.2512    0.0000 </r>
       <r>   16.3179    0.0000 </r>
       <r>   18.2590    0.0000 </r>
       <r>   18.2665    0.0000 </r>
      </set>
      <set comment="kpoint 61">
       <r>   -2.1383    1.0000 </r>
       <r>   -2.1038    1.0000 </r>
       <r>    2.6811    1.0000 </r>
       <r>    2.8418    1.0000 </r>
       <r>    6.3901    0.0000 </r>
       <r>    6.5875    0.0000 </r>
       <r>   15.3312    0.0000 </r>
       <r>   15.4245    0.0000 </r>
       <r>   16.1961    0.0000 </r>
       <r>   16.2754    0.0000 </r>
       <r>   18.3015    0.0000 </r>
       <r>   18.3083    0.0000 </r>
      </set>
      <set comment="kpoint 62">
       <r>   -2.1405    1.0000 </r>
       <r>   -2.0987    1.0000 </r>
       <r>    2.6535    1.0000 </r>
       <r>    2.8456    1.0000 </r>
       <r>    6.3944    0.0000 </r>
       <r>    6.6310    0.0000 </r>
       <r>   15.2887    0.0000 </r>
       <r>   15.3984    0.0000 </r>
       <r>   16.1383    0.0000 </r>
       <r>   16.2305    0.0000 </r>
       <r>   18.3493    0.0000 </r>
       <r>   18.3613    0.0000 </r>
      </set>
      <set comment="kpoint 63">
       <r>   -2.1430    1.0000 </r>
       <r>   -2.0931    1.0000 </r>
       <r>    2.6240    1.0000 </r>
       <r>    2.8497    1.0000 </r>
       <r>    6.3992    0.0000 </r>
       <r>    6.6779    0.0000 </r>
       <r>   15.2437    0.0000 </r>
       <r>   15.3704    0.0000 </r>
       <r>   16.0780    0.0000 </r>
       <r>   16.1835    0.0000 </r>
       <r>   18.3964    0.0000 </r>
       <r>   18.4118    0.0000 </r>
      </set>
      <set comment="kpoint 64">
       <r>   -2.1457    1.0000 </r>
       <r>   -2.0871    1.0000 </r>
       <r>    2.5929    1.0000 </r>
       <r>    2.8542    1.0000 </r>
       <r>    6.4043    0.0000 </r>
       <r>    6.7280    0.0000 </r>
       <r>   15.1963    0.0000 </r>
       <r>   15.3405    0.0000 </r>
       <r>   16.0157    0.0000 </r>
       <r>   16.1347    0.0000 </r>
       <r>   18.4452    0.0000 </r>
       <r>   18.5839    0.0000 </r>
      </set>
      <set comment="kpoint 65">
       <r>   -2.1487    1.0000 </r>
       <r>   -2.0805    1.0000 </r>
       <r>    2.5604    1.0000 </r>
       <r>    2.8590    1.0000 </r>
       <r>    6.4099    0.0000 </r>
       <r>    6.7811    0.0000 </r>
       <r>   15.1468    0.0000 </r>
       <r>   15.3088    0.0000 </r>
       <r>   15.9517    0.0000 </r>
       <r>   16.0843    0.0000 </r>
       <r>   18.4948    0.0000 </r>
       <r>   18.5006    0.0000 </r>
      </set>
      <set comment="kpoint 66">
       <r>   -2.1520    1.0000 </r>
       <r>   -2.0734    1.0000 </r>
       <r>    2.5265    1.0000 </r>
       <r>    2.8642    1.0000 </r>
       <r>    6.4158    0.0000 </r>
       <r>    6.8371    0.0000 </r>
       <r>   15.0955    0.0000 </r>
       <r>   15.2756    0.0000 </r>
       <r>   15.8863    0.0000 </r>
       <r>   16.0325    0.0000 </r>
       <r>   18.5480    0.0000 </r>
       <r>   18.6549    0.0000 </r>
      </set>
      <set comment="kpoint 67">
       <r>   -2.1556    1.0000 </r>
       <r>   -2.0659    1.0000 </r>
       <r>    2.4915    1.0000 </r>
       <r>    2.8697    1.0000 </r>
       <r>    6.4222    0.0000 </r>
       <r>    6.8958    0.0000 </r>
       <r>   15.0424    0.0000 </r>
       <r>   15.2407    0.0000 </r>
       <r>   15.8196    0.0000 </r>
       <r>   15.9795    0.0000 </r>
       <r>   18.6001    0.0000 </r>
       <r>   18.6391    0.0000 </r>
      </set>
      <set comment="kpoint 68">
       <r>   -2.1595    1.0000 </r>
       <r>   -2.0579    1.0000 </r>
       <r>    2.4556    1.0000 </r>
       <r>    2.8756    1.0000 </r>
       <r>    6.4290    0.0000 </r>
       <r>    6.9571    0.0000 </r>
       <r>   14.9879    0.0000 </r>
       <r>   15.2045    0.0000 </r>
       <r>   15.7519    0.0000 </r>
       <r>   15.9256    0.0000 </r>
       <r>   18.6475    0.0000 </r>
       <r>   18.6741    0.0000 </r>
      </set>
      <set comment="kpoint 69">
       <r>   -2.1637    1.0000 </r>
       <r>   -2.0494    1.0000 </r>
       <r>    2.4187    1.0000 </r>
       <r>    2.8818    1.0000 </r>
       <r>    6.4362    0.0000 </r>
       <r>    7.0209    0.0000 </r>
       <r>   14.9321    0.0000 </r>
       <r>   15.1669    0.0000 </r>
       <r>   15.6834    0.0000 </r>
       <r>   15.8708    0.0000 </r>
       <r>   18.7352    0.0000 </r>
       <r>   18.7579    0.0000 </r>
      </set>
      <set comment="kpoint 70">
       <r>   -2.1682    1.0000 </r>
       <r>   -2.0404    1.0000 </r>
       <r>    2.3812    1.0000 </r>
       <r>    2.8884    1.0000 </r>
       <r>    6.4438    0.0000 </r>
       <r>    7.0869    0.0000 </r>
       <r>   14.8751    0.0000 </r>
       <r>   15.1281    0.0000 </r>
       <r>   15.6142    0.0000 </r>
       <r>   15.8152    0.0000 </r>
       <r>   18.7564    0.0000 </r>
       <r>   18.8331    0.0000 </r>
      </set>
      <set comment="kpoint 71">
       <r>   -2.1731    1.0000 </r>
[...]
        <r>  0.0075  0.0535  0.0028  0.0011  0.0000  0.0000  0.0000  0.0000  0.0000 </r>
       </set>
      </set>
      <set comment="kpoint 294">
       <set comment="band 1">
        <r>  0.3716  0.0035  0.0000  0.0000  0.0000  0.0000  0.0000  0.0000  0.0000 </r>
        <r>  0.0155  0.0837  0.0005  0.0000  0.0000  0.0000  0.0000  0.0000  0.0000 </r>
       </set>
       <set comment="band 2">
        <r>  0.0155  0.0837  0.0005  0.0000  0.0000  0.0000  0.0000  0.0000  0.0000 </r>
        <r>  0.3716  0.0035  0.0000  0.0000  0.0000  0.0000  0.0000  0.0000  0.0000 </r>
       </set>
       <set comment="band 3">
        <r>  0.0005  0.0013  0.0892  0.1016  0.0000  0.0000  0.0000  0.0000  0.0000 </r>
        <r>  0.0005  0.0015  0.1015  0.0892  0.0000  0.0000  0.0000  0.0000  0.0000 </r>
       </set>
       <set comment="band 4">
        <r>  0.0005  0.0015  0.1015  0.0892  0.0000  0.0000  0.0000  0.0000  0.0000 </r>
        <r>  0.0005  0.0013  0.0892  0.1016  0.0000  0.0000  0.0000  0.0000  0.0000 </r>
       </set>
       <set comment="band 5">
        <r>  0.0493  0.0357  0.0018  0.0024  0.0000  0.0000  0.0000  0.0000  0.0000 </r>
        <r>  0.0509  0.0346  0.0017  0.0025  0.0000  0.0000  0.0000  0.0000  0.0000 </r>
       </set>
       <set comment="band 6">
        <r>  0.0509  0.0346  0.0017  0.0025  0.0000  0.0000  0.0000  0.0000  0.0000 </r>
        <r>  0.0493  0.0357  0.0018  0.0024  0.0000  0.0000  0.0000  0.0000  0.0000 </r>
       </set>
       <set comment="band 7">
        <r>  0.0035  0.0021  0.0637  0.1622  0.0000  0.0000  0.0000  0.0000  0.0000 </r>
        <r>  0.0016  0.0047  0.1429  0.0723  0.0000  0.0000  0.0000  0.0000  0.0000 </r>
       </set>
       <set comment="band 8">
        <r>  0.0016  0.0047  0.1428  0.0722  0.0000  0.0000  0.0000  0.0000  0.0000 </r>
        <r>  0.0036  0.0022  0.0637  0.1621  0.0000  0.0000  0.0000  0.0000  0.0000 </r>
       </set>
       <set comment="band 9">
        <r>  0.0017  0.0132  0.0257  0.0000  0.0000  0.0000  0.0000  0.0000  0.0000 </r>
        <r>  0.0032  0.0069  0.0133  0.0000  0.0000  0.0000  0.0000  0.0000  0.0000 </r>
       </set>
       <set comment="band 10">
        <r>  0.0032  0.0068  0.0133  0.0000  0.0000  0.0000  0.0000  0.0000  0.0000 </r>
        <r>  0.0017  0.0132  0.0256  0.0000  0.0000  0.0000  0.0000  0.0000  0.0000 </r>
       </set>
       <set comment="band 11">
        <r>  0.0163  0.0021  0.0002  0.0024  0.0000  0.0000  0.0000  0.0000  0.0000 </r>
        <r>  0.0006  0.0560  0.0037  0.0001  0.0000  0.0000  0.0000  0.0000  0.0000 </r>
       </set>
       <set comment="band 12">
        <r>  0.0002  0.0610  0.0036  0.0002  0.0000  0.0000  0.0000  0.0000  0.0000 </r>
        <r>  0.0178  0.0008  0.0002  0.0022  0.0000  0.0000  0.0000  0.0000  0.0000 </r>
       </set>
      </set>
      <set comment="kpoint 295">
       <set comment="band 1">
        <r>  0.2361  0.0341  0.0001  0.0000  0.0000  0.0000  0.0000  0.0000  0.0000 </r>
        <r>  0.1508  0.0533  0.0002  0.0000  0.0000  0.0000  0.0000  0.0000  0.0000 </r>
       </set>
       <set comment="band 2">
        <r>  0.1508  0.0533  0.0002  0.0000  0.0000  0.0000  0.0000  0.0000  0.0000 </r>
        <r>  0.2361  0.0341  0.0001  0.0000  0.0000  0.0000  0.0000  0.0000  0.0000 </r>
       </set>
       <set comment="band 3">
        <r>  0.0005  0.0008  0.0733  0.1187  0.0000  0.0000  0.0000  0.0000  0.0000 </r>
        <r>  0.0003  0.0012  0.1187  0.0733  0.0000  0.0000  0.0000  0.0000  0.0000 </r>
       </set>
       <set comment="band 4">
        <r>  0.0003  0.0012  0.1187  0.0733  0.0000  0.0000  0.0000  0.0000  0.0000 </r>
        <r>  0.0005  0.0008  0.0733  0.1187  0.0000  0.0000  0.0000  0.0000  0.0000 </r>
       </set>
       <set comment="band 5">
        <r>  0.0504  0.0354  0.0012  0.0017  0.0000  0.0000  0.0000  0.0000  0.0000 </r>
        <r>  0.0504  0.0355  0.0013  0.0017  0.0000  0.0000  0.0000  0.0000  0.0000 </r>
       </set>
       <set comment="band 6">
        <r>  0.0504  0.0355  0.0013  0.0017  0.0000  0.0000  0.0000  0.0000  0.0000 </r>
        <r>  0.0504  0.0354  0.0013  0.0017  0.0000  0.0000  0.0000  0.0000  0.0000 </r>
       </set>
       <set comment="band 7">
        <r>  0.0032  0.0004  0.0210  0.2145  0.0000  0.0000  0.0000  0.0000  0.0000 </r>
        <r>  0.0003  0.0041  0.1960  0.0230  0.0000  0.0000  0.0000  0.0000  0.0000 </r>
       </set>
       <set comment="band 8">
        <r>  0.0003  0.0041  0.1961  0.0230  0.0000  0.0000  0.0000  0.0000  0.0000 </r>
        <r>  0.0032  0.0005  0.0210  0.2145  0.0000  0.0000  0.0000  0.0000  0.0000 </r>
       </set>
       <set comment="band 9">
        <r>  0.0032  0.0036  0.0068  0.0006  0.0000  0.0000  0.0000  0.0000  0.0000 </r>
        <r>  0.0009  0.0125  0.0232  0.0002  0.0000  0.0000  0.0000  0.0000  0.0000 </r>
       </set>
       <set comment="band 10">
        <r>  0.0009  0.0125  0.0232  0.0002  0.0000  0.0000  0.0000  0.0000  0.0000 </r>
        <r>  0.0032  0.0036  0.0068  0.0006  0.0000  0.0000  0.0000  0.0000  0.0000 </r>
       </set>
       <set comment="band 11">
        <r>  0.0040  0.0208  0.0019  0.0011  0.0000  0.0000  0.0000  0.0000  0.0000 </r>
        <r>  0.0061  0.0140  0.0012  0.0017  0.0000  0.0000  0.0000  0.0000  0.0000 </r>
       </set>
       <set comment="band 12">
        <r>  0.0026  0.0096  0.0014  0.0028  0.0000  0.0000  0.0000  0.0000  0.0000 </r>
        <r>  0.0028  0.0081  0.0021  0.0020  0.0000  0.0000  0.0000  0.0000  0.0000 </r>
       </set>
      </set>
      <set comment="kpoint 296">
       <set comment="band 1">
        <r>  0.3692  0.0040  0.0000  0.0000  0.0000  0.0000  0.0000  0.0000  0.0000 </r>
        <r>  0.0176  0.0836  0.0002  0.0000  0.0000  0.0000  0.0000  0.0000  0.0000 </r>
       </set>
       <set comment="band 2">
        <r>  0.0176  0.0836  0.0002  0.0000  0.0000  0.0000  0.0000  0.0000  0.0000 </r>
        <r>  0.3692  0.0040  0.0000  0.0000  0.0000  0.0000  0.0000  0.0000  0.0000 </r>
       </set>
       <set comment="band 3">
        <r>  0.0003  0.0004  0.0662  0.1269  0.0000  0.0000  0.0000  0.0000  0.0000 </r>
        <r>  0.0002  0.0009  0.1269  0.0662  0.0000  0.0000  0.0000  0.0000  0.0000 </r>
       </set>
       <set comment="band 4">
        <r>  0.0002  0.0009  0.1269  0.0662  0.0000  0.0000  0.0000  0.0000  0.0000 </r>
        <r>  0.0003  0.0004  0.0662  0.1269  0.0000  0.0000  0.0000  0.0000  0.0000 </r>
       </set>
       <set comment="band 5">
        <r>  0.0519  0.0349  0.0008  0.0011  0.0000  0.0000  0.0000  0.0000  0.0000 </r>
        <r>  0.0495  0.0366  0.0008  0.0011  0.0000  0.0000  0.0000  0.0000  0.0000 </r>
       </set>
       <set comment="band 6">
        <r>  0.0495  0.0366  0.0008  0.0011  0.0000  0.0000  0.0000  0.0000  0.0000 </r>
        <r>  0.0519  0.0349  0.0008  0.0011  0.0000  0.0000  0.0000  0.0000  0.0000 </r>
       </set>
       <set comment="band 7">
        <r>  0.0020  0.0002  0.0165  0.2217  0.0000  0.0000  0.0000  0.0000  0.0000 </r>
        <r>  0.0002  0.0025  0.2091  0.0175  0.0000  0.0000  0.0000  0.0000  0.0000 </r>
       </set>
       <set comment="band 8">
        <r>  0.0002  0.0025  0.2091  0.0175  0.0000  0.0000  0.0000  0.0000  0.0000 </r>
        <r>  0.0020  0.0002  0.0165  0.2218  0.0000  0.0000  0.0000  0.0000  0.0000 </r>
       </set>
       <set comment="band 9">
        <r>  0.0013  0.0068  0.0131  0.0012  0.0000  0.0000  0.0000  0.0000  0.0000 </r>
        <r>  0.0018  0.0050  0.0096  0.0016  0.0000  0.0000  0.0000  0.0000  0.0000 </r>
       </set>
       <set comment="band 10">
        <r>  0.0018  0.0050  0.0096  0.0016  0.0000  0.0000  0.0000  0.0000  0.0000 </r>
        <r>  0.0013  0.0069  0.0131  0.0012  0.0000  0.0000  0.0000  0.0000  0.0000 </r>
       </set>
       <set comment="band 11">
        <r>  0.0007  0.0160  0.0019  0.0004  0.0000  0.0000  0.0000  0.0000  0.0000 </r>
        <r>  0.0046  0.0025  0.0003  0.0022  0.0000  0.0000  0.0000  0.0000  0.0000 </r>
       </set>
       <set comment="band 12">
        <r>  0.0129  0.0461  0.0002  0.0022  0.0000  0.0000  0.0000  0.0000  0.0000 </r>
        <r>  0.0127  0.0450  0.0016  0.0004  0.0000  0.0000  0.0000  0.0000  0.0000 </r>
       </set>
      </set>
      <set comment="kpoint 297">
       <set comment="band 1">
        <r>  0.3287  0.0131  0.0000  0.0000  0.0000  0.0000  0.0000  0.0000  0.0000 </r>
        <r>  0.0579  0.0746  0.0001  0.0000  0.0000  0.0000  0.0000  0.0000  0.0000 </r>
       </set>
       <set comment="band 2">
        <r>  0.0579  0.0746  0.0001  0.0000  0.0000  0.0000  0.0000  0.0000  0.0000 </r>
        <r>  0.3287  0.0131  0.0000  0.0000  0.0000  0.0000  0.0000  0.0000  0.0000 </r>
       </set>
       <set comment="band 3">
        <r>  0.0002  0.0001  0.0273  0.1666  0.0000  0.0000  0.0000  0.0000  0.0000 </r>
        <r>  0.0000  0.0006  0.1666  0.0273  0.0000  0.0000  0.0000  0.0000  0.0000 </r>
       </set>
       <set comment="band 4">
        <r>  0.0000  0.0006  0.1666  0.0273  0.0000  0.0000  0.0000  0.0000  0.0000 </r>
        <r>  0.0002  0.0001  0.0273  0.1666  0.0000  0.0000  0.0000  0.0000  0.0000 </r>
       </set>
       <set comment="band 5">
        <r>  0.0511  0.0358  0.0005  0.0006  0.0000  0.0000  0.0000  0.0000  0.0000 </r>
        <r>  0.0506  0.0361  0.0005  0.0006  0.0000  0.0000  0.0000  0.0000  0.0000 </r>
       </set>
       <set comment="band 6">
        <r>  0.0506  0.0361  0.0005  0.0006  0.0000  0.0000  0.0000  0.0000  0.0000 </r>
        <r>  0.0511  0.0358  0.0005  0.0006  0.0000  0.0000  0.0000  0.0000  0.0000 </r>
       </set>
       <set comment="band 7">
        <r>  0.0006  0.0007  0.1070  0.1293  0.0000  0.0000  0.0000  0.0000  0.0000 </r>
        <r>  0.0005  0.0008  0.1250  0.1107  0.0000  0.0000  0.0000  0.0000  0.0000 </r>
       </set>
       <set comment="band 8">
        <r>  0.0005  0.0008  0.1250  0.1107  0.0000  0.0000  0.0000  0.0000  0.0000 </r>
        <r>  0.0006  0.0006  0.1070  0.1293  0.0000  0.0000  0.0000  0.0000  0.0000 </r>
       </set>
       <set comment="band 9">
        <r>  0.0018  0.0010  0.0024  0.0048  0.0000  0.0000  0.0000  0.0000  0.0000 </r>
        <r>  0.0003  0.0065  0.0149  0.0008  0.0000  0.0000  0.0000  0.0000  0.0000 </r>
       </set>
       <set comment="band 10">
        <r>  0.0003  0.0065  0.0149  0.0008  0.0000  0.0000  0.0000  0.0000  0.0000 </r>
        <r>  0.0018  0.0010  0.0024  0.0048  0.0000  0.0000  0.0000  0.0000  0.0000 </r>
       </set>
       <set comment="band 11">
        <r>  0.0019  0.0005  0.0001  0.0019  0.0000  0.0000  0.0000  0.0000  0.0000 </r>
        <r>  0.0002  0.0065  0.0013  0.0001  0.0000  0.0000  0.0000  0.0000  0.0000 </r>
       </set>
       <set comment="band 12">
        <r>  0.0006  0.0018  0.0014  0.0002  0.0000  0.0000  0.0000  0.0000  0.0000 </r>
        <r>  0.0005  0.0025  0.0002  0.0021  0.0000  0.0000  0.0000  0.0000  0.0000 </r>
       </set>
      </set>
      <set comment="kpoint 298">
       <set comment="band 1">
        <r>  0.3786  0.0018  0.0000  0.0000  0.0000  0.0000  0.0000  0.0000  0.0000 </r>
        <r>  0.0079  0.0860  0.0001  0.0000  0.0000  0.0000  0.0000  0.0000  0.0000 </r>
       </set>
       <set comment="band 2">
        <r>  0.0079  0.0860  0.0001  0.0000  0.0000  0.0000  0.0000  0.0000  0.0000 </r>
        <r>  0.3786  0.0018  0.0000  0.0000  0.0000  0.0000  0.0000  0.0000  0.0000 </r>
       </set>
       <set comment="band 3">
        <r>  0.0000  0.0003  0.1603  0.0342  0.0000  0.0000  0.0000  0.0000  0.0000 </r>
        <r>  0.0001  0.0001  0.0342  0.1603  0.0000  0.0000  0.0000  0.0000  0.0000 </r>
       </set>
       <set comment="band 4">
        <r>  0.0001  0.0001  0.0342  0.1603  0.0000  0.0000  0.0000  0.0000  0.0000 </r>
        <r>  0.0000  0.0003  0.1603  0.0342  0.0000  0.0000  0.0000  0.0000  0.0000 </r>
       </set>
       <set comment="band 5">
        <r>  0.0513  0.0359  0.0002  0.0003  0.0000  0.0000  0.0000  0.0000  0.0000 </r>
        <r>  0.0508  0.0362  0.0002  0.0003  0.0000  0.0000  0.0000  0.0000  0.0000 </r>
       </set>
       <set comment="band 6">
        <r>  0.0508  0.0362  0.0002  0.0003  0.0000  0.0000  0.0000  0.0000  0.0000 </r>
        <r>  0.0513  0.0359  0.0002  0.0003  0.0000  0.0000  0.0000  0.0000  0.0000 </r>
       </set>
       <set comment="band 7">
        <r>  0.0003  0.0003  0.1168  0.1215  0.0000  0.0000  0.0000  0.0000  0.0000 </r>
        <r>  0.0003  0.0003  0.1197  0.1186  0.0000  0.0000  0.0000  0.0000  0.0000 </r>
       </set>
       <set comment="band 8">
        <r>  0.0003  0.0003  0.1197  0.1186  0.0000  0.0000  0.0000  0.0000  0.0000 </r>
        <r>  0.0002  0.0003  0.1168  0.1215  0.0000  0.0000  0.0000  0.0000  0.0000 </r>
       </set>
       <set comment="band 9">
        <r>  0.0007  0.0011  0.0042  0.0058  0.0000  0.0000  0.0000  0.0000  0.0000 </r>
        <r>  0.0003  0.0024  0.0095  0.0026  0.0000  0.0000  0.0000  0.0000  0.0000 </r>
       </set>
       <set comment="band 10">
        <r>  0.0004  0.0033  0.0096  0.0026  0.0000  0.0000  0.0000  0.0000  0.0000 </r>
        <r>  0.0009  0.0013  0.0042  0.0057  0.0000  0.0000  0.0000  0.0000  0.0000 </r>
       </set>
       <set comment="band 11">
        <r>  0.0000  0.0030  0.0005  0.0004  0.0000  0.0000  0.0000  0.0000  0.0000 </r>
        <r>  0.0009  0.0001  0.0002  0.0008  0.0000  0.0000  0.0000  0.0000  0.0000 </r>
       </set>
       <set comment="band 12">
        <r>  0.0055  0.0272  0.0001  0.0010  0.0000  0.0000  0.0000  0.0000  0.0000 </r>
        <r>  0.0076  0.0200  0.0005  0.0001  0.0000  0.0000  0.0000  0.0000  0.0000 </r>
       </set>
      </set>
      <set comment="kpoint 299">
       <set comment="band 1">
        <r>  0.3673  0.0044  0.0000  0.0000  0.0000  0.0000  0.0000  0.0000  0.0000 </r>
        <r>  0.0192  0.0835  0.0000  0.0000  0.0000  0.0000  0.0000  0.0000  0.0000 </r>
       </set>
       <set comment="band 2">
        <r>  0.0192  0.0835  0.0000  0.0000  0.0000  0.0000  0.0000  0.0000  0.0000 </r>
        <r>  0.3673  0.0044  0.0000  0.0000  0.0000  0.0000  0.0000  0.0000  0.0000 </r>
       </set>
       <set comment="band 3">
        <r>  0.0000  0.0000  0.0237  0.1712  0.0000  0.0000  0.0000  0.0000  0.0000 </r>
        <r>  0.0000  0.0001  0.1712  0.0237  0.0000  0.0000  0.0000  0.0000  0.0000 </r>
       </set>
       <set comment="band 4">
        <r>  0.0000  0.0001  0.1712  0.0237  0.0000  0.0000  0.0000  0.0000  0.0000 </r>
        <r>  0.0000  0.0000  0.0237  0.1712  0.0000  0.0000  0.0000  0.0000  0.0000 </r>
       </set>
       <set comment="band 5">
        <r>  0.0510  0.0362  0.0001  0.0001  0.0000  0.0000  0.0000  0.0000  0.0000 </r>
        <r>  0.0512  0.0361  0.0001  0.0001  0.0000  0.0000  0.0000  0.0000  0.0000 </r>
       </set>
       <set comment="band 6">
        <r>  0.0512  0.0361  0.0001  0.0001  0.0000  0.0000  0.0000  0.0000  0.0000 </r>
        <r>  0.0510  0.0362  0.0001  0.0001  0.0000  0.0000  0.0000  0.0000  0.0000 </r>
       </set>
       <set comment="band 7">
        <r>  0.0000  0.0001  0.2118  0.0274  0.0000  0.0000  0.0000  0.0000  0.0000 </r>
        <r>  0.0001  0.0000  0.0273  0.2126  0.0000  0.0000  0.0000  0.0000  0.0000 </r>
       </set>
       <set comment="band 8">
        <r>  0.0001  0.0000  0.0273  0.2126  0.0000  0.0000  0.0000  0.0000  0.0000 </r>
        <r>  0.0000  0.0001  0.2117  0.0274  0.0000  0.0000  0.0000  0.0000  0.0000 </r>
       </set>
       <set comment="band 9">
        <r>  0.0002  0.0004  0.0045  0.0063  0.0000  0.0000  0.0000  0.0000  0.0000 </r>
        <r>  0.0001  0.0006  0.0072  0.0040  0.0000  0.0000  0.0000  0.0000  0.0000 </r>
       </set>
       <set comment="band 10">
        <r>  0.0001  0.0006  0.0072  0.0040  0.0000  0.0000  0.0000  0.0000  0.0000 </r>
        <r>  0.0002  0.0004  0.0045  0.0063  0.0000  0.0000  0.0000  0.0000  0.0000 </r>
       </set>
       <set comment="band 11">
        <r>  0.0001  0.0022  0.0002  0.0000  0.0000  0.0000  0.0000  0.0000  0.0000 </r>
        <r>  0.0006  0.0004  0.0000  0.0003  0.0000  0.0000  0.0000  0.0000  0.0000 </r>
       </set>
       <set comment="band 12">
        <r>  0.0006  0.0005  0.0000  0.0003  0.0000  0.0000  0.0000  0.0000  0.0000 </r>
        <r>  0.0001  0.0023  0.0002  0.0000  0.0000  0.0000  0.0000  0.0000  0.0000 </r>
       </set>
      </set>
      <set comment="kpoint 300">
       <set comment="band 1">
        <r>  0.3232  0.0144  0.0000  0.0000  0.0000  0.0000  0.0000  0.0000  0.0000 </r>
        <r>  0.0632  0.0735  0.0000  0.0000  0.0000  0.0000  0.0000  0.0000  0.0000 </r>
       </set>
       <set comment="band 2">
        <r>  0.0632  0.0735  0.0000  0.0000  0.0000  0.0000  0.0000  0.0000  0.0000 </r>
        <r>  0.3232  0.0144  0.0000  0.0000  0.0000  0.0000  0.0000  0.0000  0.0000 </r>
       </set>
       <set comment="band 3">
        <r>  0.0000  0.0000  0.1157  0.0792  0.0000  0.0000  0.0000  0.0000  0.0000 </r>
        <r>  0.0000  0.0000  0.0792  0.1157  0.0000  0.0000  0.0000  0.0000  0.0000 </r>
       </set>
       <set comment="band 4">
        <r>  0.0000  0.0000  0.0792  0.1157  0.0000  0.0000  0.0000  0.0000  0.0000 </r>
        <r>  0.0000  0.0000  0.1157  0.0792  0.0000  0.0000  0.0000  0.0000  0.0000 </r>
       </set>
       <set comment="band 5">
        <r>  0.0511  0.0362  0.0000  0.0000  0.0000  0.0000  0.0000  0.0000  0.0000 </r>
        <r>  0.0512  0.0362  0.0000  0.0000  0.0000  0.0000  0.0000  0.0000  0.0000 </r>
       </set>
       <set comment="band 6">
        <r>  0.0512  0.0362  0.0000  0.0000  0.0000  0.0000  0.0000  0.0000  0.0000 </r>
        <r>  0.0511  0.0362  0.0000  0.0000  0.0000  0.0000  0.0000  0.0000  0.0000 </r>
       </set>
       <set comment="band 7">
        <r>  0.0000  0.0000  0.1598  0.0801  0.0000  0.0000  0.0000  0.0000  0.0000 </r>
        <r>  0.0000  0.0000  0.0801  0.1598  0.0000  0.0000  0.0000  0.0000  0.0000 </r>
       </set>
       <set comment="band 8">
        <r>  0.0000  0.0000  0.0801  0.1598  0.0000  0.0000  0.0000  0.0000  0.0000 </r>
        <r>  0.0000  0.0000  0.1598  0.0801  0.0000  0.0000  0.0000  0.0000  0.0000 </r>
       </set>
       <set comment="band 9">
        <r>  0.0000  0.0000  0.0009  0.0102  0.0000  0.0000  0.0000  0.0000  0.0000 </r>
        <r>  0.0000  0.0000  0.0102  0.0009  0.0000  0.0000  0.0000  0.0000  0.0000 </r>
       </set>
       <set comment="band 10">
        <r>  0.0000  0.0000  0.0102  0.0009  0.0000  0.0000  0.0000  0.0000  0.0000 </r>
        <r>  0.0000  0.0000  0.0009  0.0102  0.0000  0.0000  0.0000  0.0000  0.0000 </r>
       </set>
       <set comment="band 11">
        <r>  0.0001  0.0011  0.0000  0.0000  0.0000  0.0000  0.0000  0.0000  0.0000 </r>
        <r>  0.0003  0.0002  0.0000  0.0000  0.0000  0.0000  0.0000  0.0000  0.0000 </r>
       </set>
       <set comment="band 12">
        <r>  0.0008  0.0071  0.0000  0.0000  0.0000  0.0000  0.0000  0.0000  0.0000 </r>
        <r>  0.0020  0.0025  0.0000  0.0000  0.0000  0.0000  0.0000  0.0000  0.0000 </r>
       </set>
      </set>
     </set>
    </set>
   </array>
  </projected>
 </calculation>
 <structure name="finalpos" >
  <crystal>
   <varray name="basis" >
    <v>       0.00000000       2.73426864       2.73426864 </v>
    <v>       2.73426864       0.00000000       2.73426864 </v>
    <v>       2.73426864       2.73426864       0.00000000 </v>
   </varray>
   <i name="volume">     40.88401515 </i>
   <varray name="rec_basis" >
    <v>      -0.18286426       0.18286426       0.18286426 </v>
    <v>       0.18286426      -0.18286426       0.18286426 </v>
    <v>       0.18286426       0.18286426      -0.18286426 </v>
   </varray>
  </crystal>
  <varray name="positions" >
   <v>       0.00000000       0.00000000       0.00000000 </v>
   <v>       0.25000000       0.25000000       0.25000000 </v>
  </varray>
 </structure>
</modeling>
