Silicon Diamond (band)                  
           1
     0.000000    2.734269    2.734269
     2.734269    0.000000    2.734269
     2.734269    2.734269    0.000000
   Si
   2
Silicon Diamond (band)                  
           1
     0.000000    2.734269    2.734269
     2.734269    0.000000    2.734269
     2.734269    2.734269    0.000000
   Si
   2
Direct configuration=     1
   0.00000000  0.00000000  0.00000000
   0.25000000  0.25000000  0.25000000
